/*--------------------------------*- C++ -*----------------------------------*\
| =========                 |                                                 |
| \\      /  F ield         | OpenFOAM: The Open Source CFD Toolbox           |
|  \\    /   O peration     | Version:  2.4.0                                 |
|   \\  /    A nd           | Web:      www.OpenFOAM.org                      |
|    \\/     M anipulation  |                                                 |
\*---------------------------------------------------------------------------*/
FoamFile
{
    version     2.0;
    format      ascii;
    class       surfaceScalarField;
    location    "20000";
    object      phi;
}
// * * * * * * * * * * * * * * * * * * * * * * * * * * * * * * * * * * * * * //

dimensions      [0 3 -1 0 0 0 0];

internalField   nonuniform List<scalar> 
19323
(
-1.0066719e-05
-1.0157343e-05
-9.4316032e-06
-1.0015188e-05
-8.8053747e-06
-9.8690921e-06
-8.1882675e-06
-9.7192849e-06
-7.5805392e-06
-9.5653195e-06
-6.9824333e-06
-9.407558e-06
-6.3942489e-06
-9.2449297e-06
-9.0781697e-06
-1.3661902e-05
-1.1522675e-05
-1.2960193e-05
-1.1391093e-05
-1.2266527e-05
-1.1255566e-05
-1.1581129e-05
-1.1116113e-05
-1.0904227e-05
-1.0972847e-05
-1.0236054e-05
-1.0825516e-05
-9.5768418e-06
-1.06744e-05
-8.9268365e-06
-1.0519097e-05
-8.2862826e-06
-1.0359839e-05
-7.6554438e-06
-1.0196158e-05
-7.0345773e-06
-1.0028425e-05
-6.4239902e-06
-9.8555167e-06
-5.8239663e-06
-9.6781936e-06
-5.2348606e-06
-9.494944e-06
-4.6569969e-06
-9.3067971e-06
-4.0908085e-06
-9.1113523e-06
-8.9102266e-06
-1.6184603e-05
-1.2651722e-05
-1.5433129e-05
-1.2525104e-05
-1.468927e-05
-1.2394051e-05
-1.3953263e-05
-1.2258681e-05
-1.3225351e-05
-1.2119006e-05
-1.2505765e-05
-1.1975152e-05
-1.1794745e-05
-1.1827134e-05
-1.1092522e-05
-1.167507e-05
-1.0399341e-05
-1.1518696e-05
-9.7154417e-06
-1.13583e-05
-9.0410783e-06
-1.1193461e-05
-8.3765022e-06
-1.1024415e-05
-7.7219909e-06
-1.085067e-05
-7.0778088e-06
-1.0672607e-05
-6.4442744e-06
-1.0489051e-05
-5.8216843e-06
-1.0300784e-05
-5.2104047e-06
-1.0106224e-05
-4.6107716e-06
-9.9064302e-06
-4.023234e-06
-9.6988898e-06
-3.448191e-06
-9.4852696e-06
-9.2617133e-06
-2.6423882e-05
-1.4638364e-05
-2.5571169e-05
-1.4571079e-05
-2.4722946e-05
-1.4497229e-05
-2.3879537e-05
-1.4417018e-05
-2.3041257e-05
-1.4330613e-05
-2.2208417e-05
-1.4238206e-05
-2.1381317e-05
-1.4139997e-05
-2.0560245e-05
-1.4036182e-05
-1.9745484e-05
-1.3926896e-05
-1.8937313e-05
-1.3812337e-05
-1.8135998e-05
-1.3692685e-05
-1.7341803e-05
-1.3568049e-05
-1.6554987e-05
-1.3438538e-05
-1.5775802e-05
-1.3304288e-05
-1.5004502e-05
-1.3165351e-05
-1.4241334e-05
-1.302185e-05
-1.3486546e-05
-1.2873793e-05
-1.2740382e-05
-1.2721316e-05
-1.2003084e-05
-1.2564432e-05
-1.1274896e-05
-1.2403259e-05
-1.0556072e-05
-1.223752e-05
-9.8468563e-06
-1.2067515e-05
-9.1475158e-06
-1.1892801e-05
-8.4583133e-06
-1.1713617e-05
-7.7795313e-06
-1.1529452e-05
-7.1114471e-06
-1.1340691e-05
-6.4543913e-06
-1.1146107e-05
-5.8086702e-06
-1.0946505e-05
-5.1746633e-06
-1.074023e-05
-4.5527217e-06
-1.0528372e-05
-3.9433061e-06
-1.0308305e-05
-3.3468324e-06
-1.0081743e-05
-2.7638835e-06
-9.8446621e-06
-2.1949609e-06
-9.5998122e-06
-9.3410433e-06
-2.71524e-05
-1.5526452e-05
-2.6268624e-05
-1.5454856e-05
-2.5389499e-05
-1.5376353e-05
-2.4515364e-05
-1.5291153e-05
-2.3646547e-05
-1.5199429e-05
-2.2783366e-05
-1.5101388e-05
-2.1926125e-05
-1.4997237e-05
-2.107513e-05
-1.4887177e-05
-2.0230673e-05
-1.4771353e-05
-1.9393037e-05
-1.4649973e-05
-1.85625e-05
-1.4523223e-05
-1.7739336e-05
-1.4391213e-05
-1.6923808e-05
-1.4254065e-05
-1.6116183e-05
-1.4111913e-05
-1.5316722e-05
-1.3964813e-05
-1.4525678e-05
-1.3812893e-05
-1.3743308e-05
-1.3656163e-05
-1.2969865e-05
-1.3494759e-05
-1.2205603e-05
-1.3328693e-05
-1.1450771e-05
-1.3158091e-05
-1.0705631e-05
-1.298266e-05
-9.9704418e-06
-1.2802704e-05
-9.2454752e-06
-1.2617768e-05
-8.5310047e-06
-1.2428088e-05
-7.8273239e-06
-1.2233132e-05
-7.1347215e-06
-1.2033293e-05
-6.4535361e-06
-1.1827292e-05
-5.7840897e-06
-1.1615951e-05
-5.1267705e-06
-1.139755e-05
-4.4819488e-06
-1.1173194e-05
-3.8500972e-06
-1.0940157e-05
-3.2316521e-06
-1.0700188e-05
-2.6272087e-06
-1.0449105e-05
-2.0372942e-06
-1.0189727e-05
-1.4626725e-06
-9.915665e-06
-9.0399977e-07
-9.6315888e-06
-9.3279221e-06
-2.8808798e-05
-1.6515248e-05
-2.7888649e-05
-1.6446601e-05
-2.6972966e-05
-1.6370539e-05
-2.6062107e-05
-1.6287213e-05
-2.5156415e-05
-1.6196844e-05
-2.4256232e-05
-1.6099612e-05
-2.3361885e-05
-1.5995735e-05
-2.2473695e-05
-1.5885427e-05
-2.1591967e-05
-1.5768905e-05
-2.0717009e-05
-1.5646311e-05
-1.9849112e-05
-1.551787e-05
-1.8988567e-05
-1.5383768e-05
-1.8135648e-05
-1.5244132e-05
-1.7290639e-05
-1.5099074e-05
-1.6453808e-05
-1.4948744e-05
-1.5625423e-05
-1.4793197e-05
-1.4805753e-05
-1.4632563e-05
-1.399506e-05
-1.4466856e-05
-1.3193609e-05
-1.429621e-05
-1.2401659e-05
-1.4120643e-05
-1.161947e-05
-1.394028e-05
-1.0847315e-05
-1.3754815e-05
-1.0085456e-05
-1.3564563e-05
-9.3341831e-06
-1.3369041e-05
-8.5937725e-06
-1.3168498e-05
-7.8645331e-06
-1.2962372e-05
-7.1467612e-06
-1.2751065e-05
-6.4408117e-06
-1.2533242e-05
-5.7470139e-06
-1.2309749e-05
-5.0657743e-06
-1.2078789e-05
-4.3974731e-06
-1.1841495e-05
-3.7426014e-06
-1.1595029e-05
-3.1016104e-06
-1.1341179e-05
-2.4751167e-06
-1.1075599e-05
-1.8636691e-06
-1.0801174e-05
-1.2680478e-06
-1.0511286e-05
-6.8894474e-07
-1.0210692e-05
-9.8894661e-06
-2.9585626e-05
-1.7472601e-05
-2.863253e-05
-1.7399697e-05
-2.7684062e-05
-1.7319007e-05
-2.674059e-05
-1.7230684e-05
-2.5802475e-05
-1.7134959e-05
-2.4870064e-05
-1.7032023e-05
-2.3943695e-05
-1.6922105e-05
-2.3023697e-05
-1.6805424e-05
-2.2110394e-05
-1.6682208e-05
-2.1204095e-05
-1.655261e-05
-2.0305107e-05
-1.6416858e-05
-1.9413723e-05
-1.6275152e-05
-1.8530238e-05
-1.6127617e-05
-1.7654934e-05
-1.5974378e-05
-1.6788096e-05
-1.5815583e-05
-1.593e-05
-1.5651293e-05
-1.508092e-05
-1.5481643e-05
-1.4241133e-05
-1.5306643e-05
-1.3410906e-05
-1.5126437e-05
-1.2590513e-05
-1.4941036e-05
-1.1780221e-05
-1.4750572e-05
-1.0980314e-05
-1.4554722e-05
-1.0191064e-05
-1.4353813e-05
-9.4127677e-06
-1.4147337e-05
-8.645718e-06
-1.3935548e-05
-7.8902297e-06
-1.371786e-05
-7.1466115e-06
-1.3494683e-05
-6.4152291e-06
-1.3264624e-05
-5.6964292e-06
-1.3028549e-05
-4.9906271e-06
-1.2784591e-05
-4.2982179e-06
-1.2533904e-05
-3.6197126e-06
-1.2273534e-05
-2.9555805e-06
-1.2005311e-05
-2.3064522e-06
-1.1724727e-05
-1.672904e-06
-1.1434722e-05
-1.0557331e-06
-1.1128457e-05
-4.5566248e-07
-1.0810762e-05
1.2620858e-07
-1.0471337e-05
-1.0117216e-05
-3.1362183e-05
-1.8532875e-05
-3.0370809e-05
-1.8463976e-05
-2.9383844e-05
-1.8386662e-05
-2.8401673e-05
-1.8301178e-05
-2.7424681e-05
-1.8207676e-05
-2.6453233e-05
-1.8106407e-05
-2.5487689e-05
-1.7997567e-05
-2.4528403e-05
-1.7881391e-05
-2.3575712e-05
-1.7758115e-05
-2.2629948e-05
-1.7627971e-05
-2.1691435e-05
-1.7491123e-05
-2.0760486e-05
-1.7347808e-05
-1.9837408e-05
-1.719823e-05
-1.89225e-05
-1.7042525e-05
-1.801606e-05
-1.6880817e-05
-1.7118378e-05
-1.6713265e-05
-1.6229743e-05
-1.6539928e-05
-1.5350435e-05
-1.6360951e-05
-1.4480743e-05
-1.6176335e-05
-1.3620946e-05
-1.5986235e-05
-1.2771321e-05
-1.579066e-05
-1.1932151e-05
-1.5589743e-05
-1.1103724e-05
-1.5383148e-05
-1.0286329e-05
-1.5171208e-05
-9.4802675e-06
-1.4953398e-05
-8.6858436e-06
-1.4729972e-05
-7.903386e-06
-1.4500318e-05
-7.1332158e-06
-1.4264853e-05
-6.3757059e-06
-1.4022134e-05
-5.63122e-06
-1.3773035e-05
-4.9001876e-06
-1.3515624e-05
-4.1830219e-06
-1.325107e-05
-3.4802436e-06
-1.2976312e-05
-2.7923426e-06
-1.2693212e-05
-2.1199743e-06
-1.2397096e-05
-1.4637315e-06
-1.2090965e-05
-8.2443602e-07
-1.1767753e-05
-2.0284891e-07
-1.143235e-05
3.9986022e-07
-1.1074046e-05
9.8264285e-07
-1.0699998e-05
-1.0294871e-05
-3.2190432e-05
-1.9563395e-05
-3.1164069e-05
-1.9490339e-05
-3.0142273e-05
-1.9408459e-05
-2.9125449e-05
-1.9318002e-05
-2.8113982e-05
-1.9219143e-05
-2.7108257e-05
-1.9112132e-05
-2.6108646e-05
-1.8997178e-05
-2.511551e-05
-1.8874527e-05
-2.4129202e-05
-1.8744424e-05
-2.3150058e-05
-1.8607115e-05
-2.2178418e-05
-1.8462763e-05
-2.1214605e-05
-1.8311621e-05
-2.0258936e-05
-1.8153899e-05
-1.9311721e-05
-1.798974e-05
-1.8373266e-05
-1.7819272e-05
-1.7443873e-05
-1.7642658e-05
-1.6523836e-05
-1.7459965e-05
-1.5613455e-05
-1.7271332e-05
-1.4713017e-05
-1.7076772e-05
-1.3822817e-05
-1.6876435e-05
-1.2943143e-05
-1.6670334e-05
-1.2074284e-05
-1.6458602e-05
-1.1216543e-05
-1.624089e-05
-1.0370216e-05
-1.6017535e-05
-9.5356128e-06
-1.5788001e-05
-8.7130562e-06
-1.5552528e-05
-7.9028782e-06
-1.5310496e-05
-7.1054168e-06
-1.5062315e-05
-6.3210607e-06
-1.480649e-05
-5.5501814e-06
-1.4543914e-05
-4.7932232e-06
-1.4272582e-05
-4.0506175e-06
-1.3993675e-05
-3.3229007e-06
-1.3704029e-05
-2.610587e-06
-1.3405526e-05
-1.9143397e-06
-1.3093343e-05
-1.2347899e-06
-1.2770515e-05
-5.7276889e-07
-1.2429774e-05
7.0896378e-08
-1.2076015e-05
6.9497202e-07
-1.1698122e-05
1.2984117e-06
-1.1303438e-05
-1.0876342e-05
-3.4094037e-05
-2.0697984e-05
-3.3027374e-05
-2.0630058e-05
-3.1965021e-05
-2.0552691e-05
-3.0907401e-05
-2.0466079e-05
-2.9854926e-05
-2.0370477e-05
-2.8808002e-05
-2.0266068e-05
-2.7767019e-05
-2.0153114e-05
-2.6732363e-05
-2.0031835e-05
-2.5704411e-05
-1.9902479e-05
-2.4683519e-05
-1.9765315e-05
-2.3670047e-05
-1.9620587e-05
-2.2664335e-05
-1.9468475e-05
-2.1666722e-05
-1.9309234e-05
-2.0677532e-05
-1.9143089e-05
-1.9697087e-05
-1.8970185e-05
-1.8725706e-05
-1.8790654e-05
-1.7763697e-05
-1.8604667e-05
-1.6811369e-05
-1.8412292e-05
-1.5869026e-05
-1.8213675e-05
-1.4936972e-05
-1.8008826e-05
-1.4015508e-05
-1.7797899e-05
-1.3104932e-05
-1.758091e-05
-1.2205546e-05
-1.7357987e-05
-1.1317661e-05
-1.7128775e-05
-1.0441581e-05
-1.6893615e-05
-9.5776392e-06
-1.6651943e-05
-8.7261544e-06
-1.6404013e-05
-7.8874823e-06
-1.6149168e-05
-7.0619673e-06
-1.588783e-05
-6.2500098e-06
-1.5618448e-05
-5.4519998e-06
-1.5341924e-05
-4.6683951e-06
-1.5056187e-05
-3.8996435e-06
-1.4762427e-05
-3.1462967e-06
-1.4457376e-05
-2.4088922e-06
-1.414293e-05
-1.6881143e-06
-1.3814121e-05
-9.846127e-07
-1.3474016e-05
-2.9924891e-07
-1.3115137e-05
3.6705929e-07
-1.2742323e-05
1.013058e-06
-1.234412e-05
1.6377237e-06
-1.1928104e-05
2.239714e-06
-1.1478332e-05
-1.1006815e-05
-3.6084266e-05
-2.1867616e-05
-3.49764e-05
-2.180585e-05
-3.3872553e-05
-2.1733905e-05
-3.277317e-05
-2.1652074e-05
-3.1678692e-05
-2.1560557e-05
-3.0589538e-05
-2.1459631e-05
-2.9506129e-05
-2.1349477e-05
-2.8428872e-05
-2.1230371e-05
-2.7358163e-05
-2.1102543e-05
-2.6294387e-05
-2.0966255e-05
-2.5237921e-05
-2.0821781e-05
-2.4189126e-05
-2.0669382e-05
-2.314836e-05
-2.050924e-05
-2.2115973e-05
-2.0341621e-05
-2.1092297e-05
-2.0166765e-05
-2.0077668e-05
-1.9984813e-05
-1.9072415e-05
-1.9795907e-05
-1.8076852e-05
-1.9600229e-05
-1.7091307e-05
-1.9397838e-05
-1.6116088e-05
-1.9188894e-05
-1.5151511e-05
-1.8973403e-05
-1.419789e-05
-1.8751521e-05
-1.325553e-05
-1.8523269e-05
-1.2324745e-05
-1.8288773e-05
-1.1405858e-05
-1.8047662e-05
-1.0499187e-05
-1.7800286e-05
-9.6050651e-06
-1.7546065e-05
-8.7238349e-06
-1.7285243e-05
-7.855858e-06
-1.7017145e-05
-7.0014966e-06
-1.6742191e-05
-6.1611593e-06
-1.6458785e-05
-5.3352575e-06
-1.6167826e-05
-4.5242566e-06
-1.5867187e-05
-3.7286283e-06
-1.5558055e-05
-2.9489383e-06
-1.5237066e-05
-2.1857439e-06
-1.4906125e-05
-1.4397482e-06
-1.4560116e-05
-7.1163582e-07
-1.4202129e-05
-2.3051745e-09
-1.3824468e-05
6.8724053e-07
-1.3431869e-05
1.3557541e-06
-1.3012634e-05
2.0022331e-06
-1.2574583e-05
2.6253096e-06
-1.2101408e-05
3.2236852e-06
-1.160519e-05
-1.1061971e-05
-3.701379e-05
-2.301759e-05
-3.586751e-05
-2.295213e-05
-3.4725396e-05
-2.2876019e-05
-3.3587907e-05
-2.2789563e-05
-3.2455494e-05
-2.269297e-05
-3.1328596e-05
-2.2586529e-05
-3.0207644e-05
-2.2470429e-05
-2.909306e-05
-2.2344956e-05
-2.7985248e-05
-2.2210355e-05
-2.6884611e-05
-2.2066892e-05
-2.5791533e-05
-2.1914859e-05
-2.4706392e-05
-2.1754524e-05
-2.3629557e-05
-2.1586075e-05
-2.2561385e-05
-2.1409793e-05
-2.1502226e-05
-2.1225924e-05
-2.0452424e-05
-2.1034616e-05
-1.9412316e-05
-2.0836015e-05
-1.8382238e-05
-2.0630307e-05
-1.7362513e-05
-2.0417562e-05
-1.635347e-05
-2.0197937e-05
-1.5355434e-05
-1.9971439e-05
-1.4368726e-05
-1.9738229e-05
-1.3393671e-05
-1.9498324e-05
-1.2430585e-05
-1.9251858e-05
-1.1479806e-05
-1.8998441e-05
-1.0541659e-05
-1.8738433e-05
-9.6164986e-06
-1.8471225e-05
-8.7046755e-06
-1.8197066e-05
-7.8065605e-06
-1.7915259e-05
-6.9225302e-06
-1.7626221e-05
-6.0530117e-06
-1.7328303e-05
-5.1984224e-06
-1.7022415e-05
-4.3592525e-06
-1.6706357e-05
-3.5359866e-06
-1.6381321e-05
-2.7292099e-06
-1.6043842e-05
-1.9395025e-06
-1.5695832e-05
-1.1675897e-06
-1.5332029e-05
-4.1417665e-07
-1.4955542e-05
3.1975299e-07
-1.4558398e-05
1.0331451e-06
-1.4145261e-05
1.7248014e-06
-1.370429e-05
2.3937012e-06
-1.3243483e-05
3.0384498e-06
-1.2746157e-05
3.657694e-06
-1.2224434e-05
-1.1653868e-05
-3.9142178e-05
-2.4265038e-05
-3.795253e-05
-2.4207238e-05
-3.6766712e-05
-2.4137948e-05
-3.558521e-05
-2.4057521e-05
-3.4408502e-05
-2.3966271e-05
-3.3237046e-05
-2.3864426e-05
-3.2071299e-05
-2.3752276e-05
-3.0911707e-05
-2.3630021e-05
-2.9758697e-05
-2.3497966e-05
-2.8612701e-05
-2.3356351e-05
-2.7474124e-05
-2.3205469e-05
-2.6343366e-05
-2.3045616e-05
-2.5220819e-05
-2.2877071e-05
-2.4106863e-05
-2.2700031e-05
-2.3001866e-05
-2.251479e-05
-2.1906192e-05
-2.2321598e-05
-2.0820191e-05
-2.2120617e-05
-1.9744217e-05
-2.191199e-05
-1.8678612e-05
-2.1695912e-05
-1.7623716e-05
-2.1472457e-05
-1.657987e-05
-2.1241783e-05
-1.5547405e-05
-2.1003904e-05
-1.4526657e-05
-2.0758977e-05
-1.3517957e-05
-2.0507024e-05
-1.2521638e-05
-2.0248177e-05
-1.1538046e-05
-1.9982033e-05
-1.0567526e-05
-1.9708953e-05
-9.610432e-06
-1.9428319e-05
-8.6671356e-06
-1.9140363e-05
-7.7380178e-06
-1.8844377e-05
-6.8234701e-06
-1.8540769e-05
-5.9239336e-06
-1.822784e-05
-5.0398458e-06
-1.7906503e-05
-4.1717044e-06
-1.7574499e-05
-3.3200177e-06
-1.7233008e-05
-2.4853881e-06
-1.6878472e-05
-1.6684208e-06
-1.6512799e-05
-8.698559e-07
-1.6130594e-05
-9.0449862e-08
-1.5734948e-05
6.6872844e-07
-1.5317576e-05
1.4066151e-06
-1.4883147e-05
2.1220637e-06
-1.4419739e-05
2.8140124e-06
-1.3935431e-05
3.4810388e-06
-1.3413183e-05
4.1217343e-06
-1.286513e-05
4.7342245e-06
-1.2266358e-05
-1.1634966e-05
-4.0130231e-05
-2.5498977e-05
-3.8899745e-05
-2.5437724e-05
-3.7673227e-05
-2.5364466e-05
-3.6451181e-05
-2.5279567e-05
-3.5234095e-05
-2.5183357e-05
-3.4022449e-05
-2.5076072e-05
-3.2816712e-05
-2.4958014e-05
-3.1617342e-05
-2.4829391e-05
-3.0424786e-05
-2.4690521e-05
-2.9239482e-05
-2.4541655e-05
-2.8061853e-05
-2.4383098e-05
-2.6892313e-05
-2.4215156e-05
-2.5731263e-05
-2.4038121e-05
-2.4579096e-05
-2.3852197e-05
-2.3436197e-05
-2.365769e-05
-2.2302933e-05
-2.3454862e-05
-2.117968e-05
-2.324387e-05
-2.006679e-05
-2.302488e-05
-1.8964625e-05
-2.2798077e-05
-1.7873538e-05
-2.2563544e-05
-1.6793868e-05
-2.2321453e-05
-1.5725972e-05
-2.20718e-05
-1.4670193e-05
-2.1814756e-05
-1.3626873e-05
-2.1550344e-05
-1.2596358e-05
-2.1278692e-05
-1.1579005e-05
-2.0999386e-05
-1.0575169e-05
-2.071279e-05
-9.5852219e-06
-2.0418266e-05
-8.6095403e-06
-2.0116044e-05
-7.6485284e-06
-1.9805389e-05
-6.7025887e-06
-1.9486709e-05
-5.7721742e-06
-1.9158254e-05
-4.8577397e-06
-1.8820937e-05
-3.9598018e-06
-1.8472437e-05
-3.0788855e-06
-1.8113924e-05
-2.2156121e-06
-1.7741745e-05
-1.3706106e-06
-1.7357801e-05
-5.446422e-07
-1.6956562e-05
2.6145087e-07
-1.6541041e-05
1.046548e-06
-1.6102673e-05
1.8096169e-06
-1.5646216e-05
2.5495301e-06
-1.5159652e-05
3.265176e-06
-1.4651077e-05
3.9551075e-06
-1.4103115e-05
4.6178559e-06
-1.3527878e-05
5.251517e-06
-1.2900019e-05
-1.223761e-05
-4.240321e-05
-2.6826998e-05
-4.1127097e-05
-2.677509e-05
-3.9854563e-05
-2.6710258e-05
-3.8586144e-05
-2.6632885e-05
-3.7322357e-05
-2.6543354e-05
-3.6063701e-05
-2.6442014e-05
-3.4810679e-05
-2.6329094e-05
-3.3563773e-05
-2.620492e-05
-3.232345e-05
-2.6069714e-05
-3.1090182e-05
-2.592379e-05
-2.9864412e-05
-2.5767424e-05
-2.8646582e-05
-2.5600929e-05
-2.7437116e-05
-2.5424621e-05
-2.6236431e-05
-2.5238807e-05
-2.5044932e-05
-2.5043696e-05
-2.3863015e-05
-2.4839606e-05
-2.2691064e-05
-2.4626813e-05
-2.152946e-05
-2.4405474e-05
-2.0378578e-05
-2.4175762e-05
-1.9238781e-05
-2.3937873e-05
-1.8110434e-05
-2.3691891e-05
-1.6993903e-05
-2.3437983e-05
-1.5889542e-05
-2.3176162e-05
-1.4797709e-05
-2.2906589e-05
-1.371876e-05
-2.2629292e-05
-1.2653053e-05
-2.2344399e-05
-1.1600957e-05
-2.2051482e-05
-1.056284e-05
-2.1750907e-05
-9.5390859e-06
-2.144202e-05
-8.5300912e-06
-2.1125039e-05
-7.5362631e-06
-2.0799217e-05
-6.5580249e-06
-2.0464947e-05
-5.5958443e-06
-2.0120435e-05
-4.6501931e-06
-1.9766588e-05
-3.7216035e-06
-1.9401026e-05
-2.8106216e-06
-1.9024905e-05
-1.9178877e-06
-1.8634479e-05
-1.0440549e-06
-1.8231634e-05
-1.8992036e-07
-1.7810697e-05
6.4357193e-07
-1.7374533e-05
1.4552936e-06
-1.6914395e-05
2.2442573e-06
-1.643518e-05
3.0093283e-06
-1.5924723e-05
3.7493392e-06
-1.5391088e-05
4.4628214e-06
-1.4816597e-05
5.1482444e-06
-1.4213301e-05
5.8036735e-06
-1.3555448e-05
6.427103e-06
-1.2861039e-05
-1.2092959e-05
-4.4774017e-05
-2.8190697e-05
-4.3451336e-05
-2.8149679e-05
-4.2131797e-05
-2.8094629e-05
-4.0815973e-05
-2.8026082e-05
-3.9504409e-05
-2.794445e-05
-3.8197639e-05
-2.7850123e-05
-3.6896189e-05
-2.7743464e-05
-3.5600567e-05
-2.7624716e-05
-3.4311269e-05
-2.7494217e-05
-3.3028792e-05
-2.7352191e-05
-3.1753602e-05
-2.7198979e-05
-3.048617e-05
-2.7034857e-05
-2.9226952e-05
-2.6860147e-05
-2.7976384e-05
-2.6675189e-05
-2.6734896e-05
-2.6480295e-05
-2.5502903e-05
-2.6275689e-05
-2.4280821e-05
-2.6061688e-05
-2.3069044e-05
-2.583859e-05
-2.1867965e-05
-2.5606553e-05
-2.0677968e-05
-2.5365759e-05
-1.9499437e-05
-2.5116405e-05
-1.8332746e-05
-2.4858582e-05
-1.7178265e-05
-2.4592464e-05
-1.6036371e-05
-2.4318056e-05
-1.4907432e-05
-2.4035527e-05
-1.3791814e-05
-2.374491e-05
-1.2689891e-05
-2.3446322e-05
-1.1602043e-05
-2.3139331e-05
-1.0528646e-05
-2.2824304e-05
-9.4701045e-06
-2.2500561e-05
-8.4268231e-06
-2.216832e-05
-7.3992319e-06
-2.1826808e-05
-6.3877631e-06
-2.1476416e-05
-5.3928994e-06
-2.1115298e-05
-4.4151351e-06
-2.0744352e-05
-3.4550148e-06
-2.0361146e-05
-2.5131089e-06
-1.9966811e-05
-1.5900737e-06
-1.9557514e-05
-6.8658709e-07
-1.913512e-05
1.964766e-07
-1.8693761e-05
1.0580993e-06
-1.8236156e-05
1.8971942e-06
-1.775349e-05
2.712791e-06
-1.7250777e-05
3.5037276e-06
-1.6715659e-05
4.2687956e-06
-1.6156156e-05
5.0064904e-06
-1.5554292e-05
5.7152267e-06
-1.4922037e-05
6.3930376e-06
-1.4233259e-05
7.0378448e-06
-1.3505846e-05
-1.2702169e-05
-4.5874977e-05
-2.9560871e-05
-4.4507463e-05
-2.9517192e-05
-4.3143216e-05
-2.9458877e-05
-4.1782808e-05
-2.9386489e-05
-4.042682e-05
-2.9300439e-05
-3.9075797e-05
-2.9201145e-05
-3.773028e-05
-2.9088981e-05
-3.6390794e-05
-2.8964202e-05
-3.5057852e-05
-2.8827159e-05
-3.373196e-05
-2.8678083e-05
-3.2413614e-05
-2.8517326e-05
-3.1103291e-05
-2.834518e-05
-2.9801459e-05
-2.8161978e-05
-2.8508574e-05
-2.7968074e-05
-2.7225072e-05
-2.7763797e-05
-2.5951399e-05
-2.7549362e-05
-2.4687964e-05
-2.7325123e-05
-2.3435185e-05
-2.7091369e-05
-2.2193467e-05
-2.6848271e-05
-2.0963208e-05
-2.6596018e-05
-1.9744802e-05
-2.6334811e-05
-1.8538638e-05
-2.6064746e-05
-1.7345099e-05
-2.5786002e-05
-1.6164572e-05
-2.5498583e-05
-1.4997437e-05
-2.5202662e-05
-1.3844079e-05
-2.4898268e-05
-1.270488e-05
-2.4585521e-05
-1.158023e-05
-2.426398e-05
-1.0470533e-05
-2.3934001e-05
-9.3761911e-06
-2.3594903e-05
-8.2976322e-06
-2.3246879e-05
-7.235297e-06
-2.2889143e-05
-6.1896375e-06
-2.2522075e-05
-5.1611511e-06
-2.2143785e-05
-4.1503468e-06
-2.1755157e-05
-3.1577899e-06
-2.1353703e-05
-2.1840686e-06
-2.0940533e-05
-1.2298656e-06
-2.0511717e-05
-2.9589392e-07
-2.0069092e-05
6.1687389e-07
-1.9606528e-05
1.5073905e-06
-1.9126672e-05
2.3746355e-06
-1.8620735e-05
3.2176232e-06
-1.8093764e-05
4.0351609e-06
-1.7533197e-05
4.8259919e-06
-1.6946987e-05
5.5885854e-06
-1.6316885e-05
6.3212943e-06
-1.5654746e-05
7.0221208e-06
-1.4934086e-05
7.6889079e-06
-1.4172633e-05
-1.3332295e-05
-4.8400475e-05
-3.1008005e-05
-4.6984035e-05
-3.0977311e-05
-4.5570351e-05
-3.0930876e-05
-4.4160053e-05
-3.0869175e-05
-4.2753748e-05
-3.0792794e-05
-4.1352012e-05
-3.0702175e-05
-3.9955419e-05
-3.0597739e-05
-3.8564524e-05
-3.0479876e-05
-3.7179869e-05
-3.0348857e-05
-3.580199e-05
-3.0205038e-05
-3.4431401e-05
-3.0048672e-05
-3.3068617e-05
-2.988011e-05
-3.1714132e-05
-2.9699665e-05
-3.0368424e-05
-2.9507687e-05
-2.9031965e-05
-2.9304533e-05
-2.7705219e-05
-2.9090543e-05
-2.6388619e-05
-2.8865962e-05
-2.5082618e-05
-2.8631124e-05
-2.3787627e-05
-2.838636e-05
-2.2504071e-05
-2.8131827e-05
-2.1232364e-05
-2.7867725e-05
-1.9972908e-05
-2.7594267e-05
-1.8726107e-05
-2.7311547e-05
-1.7492364e-05
-2.7019746e-05
-1.6272072e-05
-2.6718874e-05
-1.5065628e-05
-2.6409106e-05
-1.3873423e-05
-2.6090473e-05
-1.2695857e-05
-2.5763088e-05
-1.153334e-05
-2.5426497e-05
-1.0386277e-05
-2.5081064e-05
-9.2550994e-06
-2.472608e-05
-8.1402373e-06
-2.4361741e-05
-7.0421501e-06
-2.398723e-05
-5.9613078e-06
-2.3602917e-05
-4.8982272e-06
-2.3206865e-05
-3.8534305e-06
-2.2799953e-05
-2.8275057e-06
-2.2379628e-05
-1.8210635e-06
-2.1946975e-05
-8.3479849e-07
-2.1497982e-05
1.3049279e-07
-2.1034383e-05
1.0737604e-06
-2.0549796e-05
1.9939807e-06
-2.0046893e-05
2.8901782e-06
-1.9516932e-05
3.7613296e-06
-1.8964916e-05
4.6062213e-06
-1.8378089e-05
5.4235461e-06
-1.7764312e-05
6.2117414e-06
-1.710508e-05
6.969102e-06
-1.6412107e-05
7.6935944e-06
-1.5658578e-05
8.3829864e-06
-1.4862025e-05
-1.398393e-05
-4.9563899e-05
-3.2474298e-05
-4.8099808e-05
-3.2441402e-05
-4.6638584e-05
-3.23921e-05
-4.5180871e-05
-3.2326888e-05
-4.3727289e-05
-3.2246376e-05
-4.2278447e-05
-3.2151017e-05
-4.0834929e-05
-3.2041256e-05
-3.9397306e-05
-3.1917499e-05
-3.7966146e-05
-3.1780017e-05
-3.6541991e-05
-3.1629193e-05
-3.512538e-05
-3.1465282e-05
-3.3716836e-05
-3.1288654e-05
-3.2316876e-05
-3.1099625e-05
-3.0925995e-05
-3.0898568e-05
-2.9544679e-05
-3.0685849e-05
-2.8173395e-05
-3.0461827e-05
-2.6812613e-05
-3.0226744e-05
-2.5462777e-05
-2.998096e-05
-2.4124334e-05
-2.9724803e-05
-2.2797706e-05
-2.9458454e-05
-2.1483328e-05
-2.9182102e-05
-2.0181619e-05
-2.8895977e-05
-1.8892992e-05
-2.8600173e-05
-1.7617858e-05
-2.8294881e-05
-1.635663e-05
-2.7980102e-05
-1.5109722e-05
-2.7656014e-05
-1.387754e-05
-2.7322654e-05
-1.2660486e-05
-2.6980142e-05
-1.1458994e-05
-2.662799e-05
-1.0273481e-05
-2.6266576e-05
-9.1043865e-06
-2.5895175e-05
-7.9521695e-06
-2.5513958e-05
-6.8172979e-06
-2.5122102e-05
-5.70026e-06
-2.4719955e-05
-4.6015856e-06
-2.4305539e-05
-3.5218183e-06
-2.3879721e-05
-2.4615665e-06
-2.343988e-05
-1.4214596e-06
-2.2987082e-05
-4.0222731e-07
-2.2517215e-05
5.9522301e-07
-2.2031833e-05
1.569809e-06
-2.1524382e-05
2.5205767e-06
-2.099766e-05
3.4465518e-06
-2.0442907e-05
4.3466709e-06
-1.9865035e-05
5.2196939e-06
-1.9251112e-05
6.0642602e-06
-1.8608878e-05
6.8787794e-06
-1.79196e-05
7.6614851e-06
-1.7194812e-05
8.4103109e-06
-1.6407404e-05
9.1229514e-06
-1.5574666e-05
9.7967088e-06
-1.4657687e-05
-1.3682072e-05
-5.2249363e-05
-3.4007143e-05
-5.0733905e-05
-3.3989755e-05
-4.9220742e-05
-3.3954566e-05
-4.7710558e-05
-3.3902284e-05
-4.6204013e-05
-3.3833433e-05
-4.4701753e-05
-3.3748636e-05
-4.3204399e-05
-3.3648372e-05
-4.1712561e-05
-3.3533095e-05
-4.0226825e-05
-3.3403235e-05
-3.874777e-05
-3.3259072e-05
-3.7275964e-05
-3.3100999e-05
-3.5811963e-05
-3.2929283e-05
-3.4356308e-05
-3.2744309e-05
-3.2909524e-05
-3.254641e-05
-3.1472129e-05
-3.2335963e-05
-3.0044625e-05
-3.2113353e-05
-2.8627493e-05
-3.1878959e-05
-2.7221218e-05
-3.1633018e-05
-2.5826262e-05
-3.1375916e-05
-2.4443075e-05
-3.1107991e-05
-2.307211e-05
-3.0829419e-05
-2.1713804e-05
-3.0540408e-05
-2.0368592e-05
-3.0241189e-05
-1.9036908e-05
-2.9931857e-05
-1.7719175e-05
-2.9612614e-05
-1.6415818e-05
-2.9283459e-05
-1.5127259e-05
-2.8944573e-05
-1.3853921e-05
-2.8595993e-05
-1.2596233e-05
-2.823783e-05
-1.1354625e-05
-2.7869597e-05
-1.012954e-05
-2.7491661e-05
-8.9214357e-06
-2.7103279e-05
-7.7307759e-06
-2.6704618e-05
-6.5580544e-06
-2.6294823e-05
-5.4037705e-06
-2.5874239e-05
-4.2684771e-06
-2.5440833e-05
-3.1527383e-06
-2.499546e-05
-2.0571713e-06
-2.4535447e-05
-9.8244183e-07
-2.4061811e-05
7.0666626e-08
-2.3570323e-05
1.101132e-06
-2.3062299e-05
2.1079105e-06
-2.253116e-05
3.0900992e-06
-2.1979849e-05
4.0466956e-06
-2.1399503e-05
4.9766012e-06
-2.079494e-05
5.8785462e-06
-2.0153056e-05
6.7511212e-06
-1.9481453e-05
7.5927093e-06
-1.8761188e-05
8.401475e-06
-1.8003578e-05
9.1753235e-06
-1.7181252e-05
9.9118675e-06
-1.631121e-05
1.0608378e-05
-1.5354198e-05
-1.4335453e-05
-5.3474857e-05
-3.5574879e-05
-5.1908778e-05
-3.5555834e-05
-5.034508e-05
-3.5518264e-05
-4.878447e-05
-3.5462894e-05
-4.7227641e-05
-3.5390262e-05
-4.5675252e-05
-3.5301024e-05
-4.4127945e-05
-3.5195679e-05
-4.2586342e-05
-3.5074698e-05
-4.105106e-05
-3.4938516e-05
-3.9522696e-05
-3.4787437e-05
-3.8001824e-05
-3.4621871e-05
-3.6489027e-05
-3.444208e-05
-3.4984859e-05
-3.4248476e-05
-3.3489868e-05
-3.4041401e-05
-3.2004584e-05
-3.3821247e-05
-3.052952e-05
-3.3588417e-05
-2.9065189e-05
-3.3343289e-05
-2.7612072e-05
-3.3086135e-05
-2.617066e-05
-3.2817328e-05
-2.4741414e-05
-3.2537236e-05
-2.3324802e-05
-3.2246031e-05
-2.1921278e-05
-3.1943933e-05
-2.0531294e-05
-3.1631172e-05
-1.9155284e-05
-3.1307867e-05
-1.7793698e-05
-3.09742e-05
-1.644697e-05
-3.0630188e-05
-1.5115545e-05
-3.0275997e-05
-1.3799857e-05
-2.9911681e-05
-1.2500343e-05
-2.9537344e-05
-1.1217457e-05
-2.9152483e-05
-9.9516536e-06
-2.8757465e-05
-8.7034027e-06
-2.835153e-05
-7.4731911e-06
-2.7934829e-05
-6.2615212e-06
-2.7506493e-05
-5.0689243e-06
-2.7066836e-05
-3.8959537e-06
-2.6613803e-05
-2.7432067e-06
-2.6148207e-05
-1.611315e-06
-2.5667338e-05
-5.0097592e-07
-2.517215e-05
5.8690762e-07
-2.4658206e-05
1.6512764e-06
-2.4126668e-05
2.6911607e-06
-2.3571045e-05
3.7056589e-06
-2.2994347e-05
4.6937449e-06
-2.2387589e-05
5.6542771e-06
-2.1755472e-05
6.585961e-06
-2.108474e-05
7.4873385e-06
-2.0382831e-05
8.3567536e-06
-1.9630603e-05
9.1923131e-06
-1.8839137e-05
9.991886e-06
-1.7980825e-05
1.075301e-05
-1.7072333e-05
1.1472921e-05
-1.6074109e-05
1.2148429e-05
-1.5010961e-05
-1.3826295e-05
-5.6324742e-05
-3.7195732e-05
-5.4704795e-05
-3.7194826e-05
-5.308657e-05
-3.7174059e-05
-5.147083e-05
-3.7134004e-05
-4.9858303e-05
-3.7075422e-05
-4.824969e-05
-3.6998874e-05
-4.6645675e-05
-3.690504e-05
-4.5046927e-05
-3.6794426e-05
-4.345409e-05
-3.6667535e-05
-4.1867789e-05
-3.6524817e-05
-4.0288641e-05
-3.6366585e-05
-3.8717252e-05
-3.619326e-05
-3.715421e-05
-3.6005122e-05
-3.5600092e-05
-3.5802595e-05
-3.4055465e-05
-3.5586028e-05
-3.2520874e-05
-3.5355837e-05
-3.0996854e-05
-3.5112438e-05
-2.948392e-05
-3.4856224e-05
-2.7982591e-05
-3.4587465e-05
-2.6493352e-05
-3.4306567e-05
-2.5016693e-05
-3.4013895e-05
-2.3553094e-05
-3.370963e-05
-2.2103022e-05
-3.3394005e-05
-2.0666939e-05
-3.3067256e-05
-1.9245311e-05
-3.2729495e-05
-1.7838586e-05
-3.2380924e-05
-1.6447231e-05
-3.2021543e-05
-1.5071688e-05
-3.1651539e-05
-1.3712408e-05
-3.1270961e-05
-1.2369853e-05
-3.0879899e-05
-1.1044487e-05
-3.0477848e-05
-9.7367824e-06
-3.006517e-05
-8.4472215e-06
-2.9641091e-05
-7.1763136e-06
-2.9205737e-05
-5.924578e-06
-2.8758229e-05
-4.6925552e-06
-2.8298859e-05
-3.4808333e-06
-2.7825525e-05
-2.2900183e-06
-2.7339022e-05
-1.1207714e-06
-2.6836585e-05
2.6161184e-08
-2.6319083e-05
1.1497468e-06
-2.5781792e-05
2.248946e-06
-2.5225867e-05
3.3228791e-06
-2.4644978e-05
4.3705998e-06
-2.4042068e-05
5.3910697e-06
-2.3408059e-05
6.3830901e-06
-2.2747493e-05
7.3453509e-06
-2.2047001e-05
8.2763306e-06
-2.131381e-05
9.1743542e-06
-2.0528626e-05
1.0037459e-05
-1.9702242e-05
1.0863481e-05
-1.8806847e-05
1.1649876e-05
-1.7858728e-05
1.2393853e-05
-1.6818085e-05
1.3092122e-05
-1.570923e-05
1.3741096e-05
-1.4475268e-05
1.4336562e-05
-1.3152578e-05
-1.1660755e-05
-5.7610764e-05
-3.8870448e-05
-5.5937043e-05
-3.8868547e-05
-5.4265128e-05
-3.8845974e-05
-5.2595792e-05
-3.880334e-05
-5.092979e-05
-3.8741423e-05
-4.9267852e-05
-3.8660813e-05
-4.7610684e-05
-3.8562208e-05
-4.5958966e-05
-3.8446144e-05
-4.431337e-05
-3.8313131e-05
-4.2674535e-05
-3.8163652e-05
-4.1043104e-05
-3.7998016e-05
-3.9419699e-05
-3.7816665e-05
-3.7804926e-05
-3.7619895e-05
-3.6199382e-05
-3.7408139e-05
-3.460365e-05
-3.718176e-05
-3.3018298e-05
-3.6941188e-05
-3.1443871e-05
-3.6686865e-05
-2.9880911e-05
-3.6419184e-05
-2.8329939e-05
-3.6138436e-05
-2.6791469e-05
-3.5845037e-05
-2.5266006e-05
-3.5539358e-05
-2.3754035e-05
-3.5221601e-05
-2.2256048e-05
-3.4891991e-05
-2.0772528e-05
-3.4550776e-05
-1.9303942e-05
-3.419808e-05
-1.7850769e-05
-3.3834097e-05
-1.6413472e-05
-3.3458841e-05
-1.4992524e-05
-3.3072487e-05
-1.3588394e-05
-3.2675091e-05
-1.2201545e-05
-3.2266748e-05
-1.0832466e-05
-3.1846927e-05
-9.4816457e-06
-3.141599e-05
-8.1495885e-06
-3.0973148e-05
-6.8368086e-06
-3.0518517e-05
-5.5438546e-06
-3.0051183e-05
-4.2712822e-06
-2.9571431e-05
-3.0196976e-06
-2.907711e-05
-1.7897268e-06
-2.8568992e-05
-5.8204835e-07
-2.8044264e-05
6.0243929e-07
-2.750357e-05
1.7626702e-06
-2.6942023e-05
2.8976923e-06
-2.6360889e-05
4.0066299e-06
-2.5753915e-05
5.0885193e-06
-2.5123957e-05
6.1422713e-06
-2.4461811e-05
7.1666686e-06
-2.377189e-05
8.1603571e-06
-2.304069e-05
9.1217746e-06
-2.2275228e-05
1.0049204e-05
-2.1456056e-05
1.0940623e-05
-2.0593661e-05
1.179383e-05
-1.9660054e-05
1.260621e-05
-1.8671108e-05
1.337493e-05
-1.7586805e-05
1.4096607e-05
-1.6430908e-05
1.4767634e-05
-1.5146295e-05
1.538368e-05
-1.3768624e-05
-1.2217272e-05
-5.8898311e-05
-4.0600598e-05
-5.716922e-05
-4.0597637e-05
-5.5442008e-05
-4.0573186e-05
-5.3717487e-05
-4.0527862e-05
-5.1996422e-05
-4.0462487e-05
-5.0279577e-05
-4.0377659e-05
-4.856767e-05
-4.0274114e-05
-4.6861415e-05
-4.0152399e-05
-4.5161489e-05
-4.0013057e-05
-4.346857e-05
-3.9856571e-05
-4.1783311e-05
-3.9683276e-05
-4.0106347e-05
-3.9493628e-05
-3.8438314e-05
-3.9287928e-05
-3.6779832e-05
-3.9066621e-05
-3.5131488e-05
-3.8830104e-05
-3.3493875e-05
-3.8578802e-05
-3.1867561e-05
-3.8313179e-05
-3.0253096e-05