0.44815628 	0 	0 	0
0.44909187 	-0.012276294 	0.0095303034 	-8.1687408e-19
0.45009717 	-0.023608732 	0.018364521 	-1.0836459e-18
0.45117744 	-0.03349953 	0.026065697 	-4.5925089e-19
0.45233828 	-0.041622009 	0.032395415 	1.1306233e-18
0.45358568 	-0.048153516 	0.037496192 	-1.1251988e-18
0.4549261 	-0.053434365 	0.041633197 	8.704106e-20
0.45636646 	-0.057767114 	0.045041987 	1.4018379e-18
0.45791423 	-0.061375615 	0.047897144 	-3.2010756e-19
0.4595774 	-0.064417676 	0.050322001 	7.3324603e-20
0.46136458 	-0.067004064 	0.05240341 	3.41943e-20
0.46328499 	-0.069213226 	0.054203226 	-3.6293144e-20
0.46534857 	-0.07110128 	0.055766101 	-2.7584479e-19
0.46756597 	-0.072708592 	0.057124621 	-3.8018056e-20
0.46994866 	-0.07406409 	0.058302681 	2.9708774e-19
0.47250895 	-0.075188113 	0.059317735 	-4.5330271e-19
0.47526006 	-0.076094298 	0.060182307 	-8.1892124e-21
0.47821618 	-0.07679083 	0.06090501 	2.4033467e-19
0.4813926 	-0.077281238 	0.061491239 	-2.8414335e-19
0.48480569 	-0.077564872 	0.061943618 	-6.983156e-20
0.48847307 	-0.077637124 	0.062262293 	-9.4962347e-20
0.49241365 	-0.077489455 	0.062445077 	-6.2064017e-21
0.49664777 	-0.077109219 	0.062487503 	1.5897451e-19
0.50119723 	-0.076479324 	0.06238278 	2.0732456e-19
0.5060855 	-0.075577688 	0.062121673 	4.1345677e-19
0.51133774 	-0.07437649 	0.061692302 	-3.5515034e-19
0.51698101 	-0.072841176 	0.061079866 	1.4904724e-19
0.52304435 	-0.070929155 	0.060266291 	1.4229825e-19
0.52955895 	-0.068588136 	0.059229796 	-6.2540661e-19
0.5365583 	-0.065754003 	0.057944382 	-5.5395643e-22
0.54407839 	-0.062348108 	0.056379235 	2.8343273e-19
0.55215783 	-0.058273837 	0.054498074 	-8.7258383e-22
0.56083809 	-0.053412245 	0.052258441 	-1.5250283e-19
0.57016371 	-0.047616524 	0.049610969 	7.1303285e-21
0.58018248 	-0.040705192 	0.046498648 	1.4975317e-19
0.59094573 	-0.032454122 	0.042856165 	-7.6484916e-20
0.60250854 	-0.022590036 	0.038610846 	9.2740376e-21
0.61493003 	-0.010791238 	0.03368776 	5.891761e-20
0.62827366 	0.0033010331 	0.028020137 	-6.9987781e-20
0.64260754 	0.020059115 	0.021564069 	-4.4901948e-19
0.65800475 	0.039851521 	0.014307578 	7.3518103e-20
0.6745437 	0.063030905 	0.0062750241 	5.8251021e-19
0.69230851 	0.089901869 	-0.0024624389 	3.7468095e-19
0.71138943 	0.12067507 	-0.011775916 	-3.2920554e-19
0.73188325 	0.15542258 	-0.021474799 	-2.1727651e-19
0.7538938 	0.19404768 	-0.031313521 	5.5103695e-20
0.77753238 	0.23627166 	-0.041007534 	-4.5841105e-19
0.80291836 	0.28163529 	-0.050255001 	-1.9966704e-19
0.8301797 	0.32950727 	-0.058760203 	1.7912462e-19
0.85945355 	0.37910005 	-0.066257495 	2.8044416e-19
0.8908869 	0.42951558 	-0.072535691 	1.4314153e-19
0.92463724 	0.4798289 	-0.077459637 	-5.0249085e-21
0.96087331 	0.52917525 	-0.080979142 	2.5121356e-19
0.99977583 	0.57682204 	-0.083121425 	-1.1856602e-19
1.0415383 	0.62222984 	-0.083974936 	-2.3420993e-19
1.0863681 	0.66508032 	-0.083665104 	5.1893292e-20
1.1344869 	0.70525415 	-0.082330918 	-5.1238594e-21
1.1861322 	0.74278748 	-0.080107563 	-1.8341978e-19
1.241558 	0.77782873 	-0.077118305 	-1.0375135e-19
1.3010361 	0.81058689 	-0.073475303 	1.1192365e-19
1.3648571 	0.84128212 	-0.069282365 	1.1060187e-19
1.4333318 	0.87011755 	-0.064641066 	-4.5784527e-20
1.5067924 	0.89726651 	-0.059655516 	1.2671568e-19
1.585594 	0.92286533 	-0.054433158 	1.3673091e-19
1.670116 	0.9470053 	-0.049072885 	-6.5035681e-20
1.7201551 	0.95937475 	-0.046133465 	-1.0778402e-20
1.7607692 	0.96938545 	-0.043734142 	3.1945131e-20
1.851244 	0.98907039 	-0.03879253 	-9.6548367e-20
1.9352734 	1.0056837 	-0.034542439 	-6.3662004e-20
2.0133292 	1.0196307 	-0.030968183 	6.8418872e-20
2.0858467 	1.0313116 	-0.027953227 	5.1038511e-20
2.153228 	1.0410218 	-0.025388384 	-1.4478252e-19
2.2158443 	1.0489852 	-0.023191253 	5.3394029e-20
2.2740391 	1.0553824 	-0.02129613 	1.5226269e-19
2.3281301 	1.0603654 	-0.019650585 	-1.6234134e-20
2.3784113 	1.0640653 	-0.018212834 	-1.0275691e-21
2.4251549 	1.066596 	-0.016949437 	3.7683974e-20
2.4686132 	1.0680556 	-0.015833489 	5.8309793e-22
2.5090199 	1.0685267 	-0.014843223 	-1.0981657e-19
2.5465917 	1.0680774 	-0.013960921 	3.9548815e-20
2.5815297 	1.0667618 	-0.01317204 	9.5010069e-20
2.6140201 	1.064622 	-0.012464511 	-3.6456077e-20
2.6442361 	1.0616899 	-0.011828169 	-7.0193659e-20
2.672338 	1.0579892 	-0.011254278 	-1.5376773e-20
2.698475 	1.053538 	-0.010735144 	9.5405712e-20
2.7227854 	1.0483503 	-0.010263799 	1.4243726e-20
2.7453976 	1.0424375 	-0.0098337544 	-6.2676646e-20
2.766431 	1.0358087 	-0.00943883 	4.503272e-20
2.7859964 	1.0284712 	-0.0090730384 	-9.3746841e-21
2.8041967 	1.0204294 	-0.0087305712 	-1.2450308e-19
2.8211278 	1.0116834 	-0.0084057869 	6.5450885e-20
2.8368784 	1.0022289 	-0.0080932691 	-1.4833584e-20
2.8515312 	0.99205868 	-0.0077879932 	-5.3208343e-20
2.8651631 	0.98116133 	-0.0074854219 	8.1486759e-20
2.8778453 	0.96952202 	-0.0071816507 	1.3498377e-20
2.8896443 	0.95712472 	-0.0068735733 	1.2405263e-20
2.9006217 	0.94395525 	-0.0065589886 	-1.4528549e-20
2.910835 	0.93000436 	-0.0062366894 	-1.4849059e-20
2.9203374 	0.91527085 	-0.0059064934 	1.4789075e-20
2.9291785 	0.89976406 	-0.0055692043 	1.4105581e-20
2.9374045 	0.88350547 	-0.0052265018 	9.8292139e-21
2.9450582 	0.86652883 	-0.0048807667 	-3.9977451e-20
2.9521795 	0.84887907 	-0.0045348595 	-2.4209451e-20
2.9588056 	0.83060997 	-0.0041918815 	5.2699383e-20
2.9649709 	0.81178101 	-0.0038549442 	1.2445738e-20
2.9707075 	0.79245382 	-0.0035269731 	-1.8527015e-20
2.9760453 	0.77268871 	-0.003210559 	1.282e-23
2.981012 	0.75254154 	-0.0029078635 	2.5814004e-20
2.9856335 	0.73206117 	-0.0026205749 	-6.0574213e-21
2.9899337 	0.7112875 	-0.0023499052 	-7.4259083e-21
2.9939351 	0.69024996 	-0.0020966184 	6.5008232e-21
2.9976584 	0.66896663 	-0.0018610788 	-1.3264004e-20
3.001123 	0.64744342 	-0.0016433093 	-2.4043189e-20
3.0043468 	0.62567342 	-0.0014430528 	-3.5232755e-21
3.0073466 	0.60363622 	-0.0012598318 	3.5293548e-21
3.0101381 	0.5812969 	-0.0010930033 	4.2127721e-23
3.0127355 	0.55860449 	-0.00094180564 	5.1069487e-21
3.0151526 	0.53548945 	-0.00080539688 	-3.5286699e-21
3.0174017 	0.51186019 	-0.00068288933 	-5.3562074e-21
3.0194946 	0.48759813 	-0.00057337747 	9.5897305e-21
3.0214421 	0.46255005 	-0.00047595928 	1.3488098e-20
3.0232543 	0.43651647 	-0.00038975155 	-8.4553062e-21
3.0249407 	0.40923424 	-0.0003139021 	-1.0178668e-20
3.0265099 	0.38034956 	-0.00024759964 	4.5739938e-21
3.0279701 	0.349376 	-0.00019008359 	4.9316413e-21
3.029329 	0.31562963 	-0.00014065887 	4.6233771e-21
3.0305934 	0.27813652 	-9.8724338e-05 	3.7020869e-21
3.0317701 	0.23554718 	-6.3838573e-05 	-2.0768861e-21
3.032865 	0.18628124 	-3.5895761e-05 	-5.8282774e-21
3.0338839 	0.12953634 	-1.5523107e-05 	-1.8557932e-21
3.034832 	0.067128339 	-3.7799938e-06 	9.4694665e-22
3.0357143 	0 	0 	0
