0 	0 	0 	0
0.0010637159 	0.019880274 	-7.959837e-06 	5.7790377e-24
0.0022067933 	0.03581899 	-3.2702181e-05 	8.4428934e-24
0.0034351532 	0.047438342 	-7.3091675e-05 	2.6621182e-24
0.0047551584 	0.055839631 	-0.00012708218 	-9.6910005e-24
0.0061736463 	0.06226496 	-0.00019403666 	-5.8703372e-24
0.0076979646 	0.067468138 	-0.00027360471 	1.8105332e-24
0.0093360089 	0.071873727 	-0.00036567232 	-2.7606651e-25
0.011096264 	0.075731705 	-0.00047044192 	1.7342633e-24
0.012987848 	0.079198622 	-0.00058837132 	-1.2527681e-24
0.015020559 	0.082378298 	-0.00072010294 	2.716782e-24
0.017204926 	0.085343102 	-0.00086642516 	6.3022605e-24
0.019552264 	0.088145721 	-0.0010282542 	-4.5501665e-24
0.022074732 	0.090826021 	-0.0012066253 	-2.4688707e-24
0.024785396 	0.093415259 	-0.0014026888 	1.4726083e-23
0.027698296 	0.09593876 	-0.0016177098 	8.2434576e-24
0.030828522 	0.098417706 	-0.0018530693 	-2.0551894e-24
0.034192287 	0.10087036 	-0.0021102676 	0
0.037807015 	0.10331295 	-0.0023909282 	2.0810725e-23
0.04169143 	0.10576029 	-0.0026968026 	1.3835794e-23
0.045865653 	0.10822631 	-0.003029776 	-1.647325e-23
0.050351306 	0.1107244 	-0.0033918722 	-3.2842e-24
0.055171623 	0.1132678 	-0.0037852599 	6.2693519e-24
0.060351574 	0.11586979 	-0.0042122581 	1.8339258e-23
0.06591799 	0.11854403 	-0.0046753406 	2.4008937e-23
0.071899704 	0.12130472 	-0.0051771408 	5.694516e-24
0.078327701 	0.12416688 	-0.0057204551 	4.7163417e-23
0.085235276 	0.12714658 	-0.0063082438 	3.5420368e-23
0.092658211 	0.13026112 	-0.0069436314 	-2.3519158e-23
0.10063495 	0.13352938 	-0.0076299029 	-1.178151e-23
0.10920683 	0.13697202 	-0.0083704972 	2.3170193e-23
0.11841823 	0.14061178 	-0.0091689952 	-5.8930017e-23
0.12831687 	0.14447387 	-0.010029102 	2.2155235e-23
0.13895403 	0.14858628 	-0.010954622 	1.0409634e-22
0.1503848 	0.1529802 	-0.011949424 	0
0.1626684 	0.15769047 	-0.013017395 	-9.6237234e-23
0.17586845 	0.16275606 	-0.014162375 	-9.6241441e-23
0.19005333 	0.16822061 	-0.015388083 	-1.4440232e-22
0.20529651 	0.17413302 	-0.016698011 	-3.4187028e-22
0.22167696 	0.18054809 	-0.018095295 	-8.8724043e-23
0.23927951 	0.18752718 	-0.019582554 	-5.8054365e-23
0.25819535 	0.19513889 	-0.021161685 	1.3014483e-22
0.27852246 	0.20345981 	-0.02283362 	-1.2268142e-22
0.30036613 	0.21257516 	-0.024598015 	-3.0022015e-22
0.32383951 	0.22257946 	-0.02645289 	3.7199381e-22
0.34906419 	0.23357704 	-0.028394185 	-2.4868562e-22
0.37617083 	0.24568235 	-0.030415239 	-4.9741397e-22
0.40529983 	0.25902 	-0.032506182 	9.2636001e-22
0.43660209 	0.27372435 	-0.03465324 	6.4629386e-22
0.47023974 	0.28993845 	-0.036837949 	-9.4594361e-22
0.50638702 	0.30781211 	-0.039036309 	2.3916344e-22
0.54523117 	0.32749874 	-0.041217919 	2.9176448e-22
0.5869734 	0.34915051 	-0.043345154 	-3.9041805e-21
0.63182993 	0.37291135 	-0.045372294 	-3.2751181e-21
0.6800331 	0.39890899 	-0.047245398 	-2.6022138e-21
0.73183261 	0.42723851 	-0.048902742 	-5.1092343e-21
0.78749677 	0.45793926 	-0.05027605 	-2.4684914e-21
0.84731391 	0.49097687 	-0.051293969 	2.4545076e-21
0.91159388 	0.52621906 	-0.051887006 	5.205473e-21
0.98066963 	0.56340427 	-0.051995152 	2.8542308e-21
1.054899 	0.60211882 	-0.051578521 	-2.749755e-21
1.1346664 	0.64179192 	-0.050628347 	-4.2680683e-21
1.2203851 	0.68172371 	-0.049174931 	-1.2904453e-21
1.3124991 	0.72115684 	-0.047286368 	1.0477185e-21
1.4114856 	0.75938311 	-0.045056211 	-1.3500052e-20
1.5178571 	0.79544396 	-0.042611633 	-2.1075721e-20
1.6242287 	0.82743135 	-0.040159216 	-9.5740433e-21
1.7232152 	0.85427652 	-0.037857597 	-3.1709581e-21
1.8153292 	0.87658506 	-0.035721525 	0
1.9010479 	0.89518517 	-0.033725546 	-3.3868474e-21
1.9808153 	0.91069607 	-0.031848577 	3.2084744e-22
2.0550447 	0.9235848 	-0.030075043 	3.6369606e-21
2.1241204 	0.93421149 	-0.028394125 	-1.5480064e-21
2.1884004 	0.94286103 	-0.026798366 	-1.4489343e-21
2.2482175 	0.94976354 	-0.02528242 	0
2.3038817 	0.95510696 	-0.023842092 	5.0058209e-22
2.3556812 	0.95904428 	-0.022473668 	2.8052701e-21
2.4038844 	0.96169753 	-0.021173489 	2.2449845e-21
2.4487409 	0.96315981 	-0.019937701 	1.4458864e-21
2.4904831 	0.96349629 	-0.018762129 	-8.7785876e-23
2.5293273 	0.96274479 	-0.017642232 	-1.5486831e-21
2.5654745 	0.96091637 	-0.016573129 	0
2.5991122 	0.95799646 	-0.01554967 	-6.3177739e-22
2.6304145 	0.95394704 	-0.014566575 	-1.9984277e-21
2.6595435 	0.94871079 	-0.013618626 	-1.388712e-21
2.6866501 	0.94221844 	-0.012701026 	-1.1721803e-21
2.7118748 	0.93439893 	-0.011809789 	-2.0439627e-21
2.7353482 	0.9251921 	-0.01094209 	-1.9648971e-21
2.7571918 	0.91456452 	-0.010096742 	2.7541531e-22
2.7775189 	0.90252403 	-0.0092744577 	8.0717063e-24
2.7964348 	0.88912848 	-0.0084777277 	-2.1416516e-21
2.8140373 	0.87448666 	-0.0077104457 	-5.5167791e-22
2.8304178 	0.85875064 	-0.0069772553 	4.7618288e-22
2.845661 	0.84210163 	-0.0062828067 	6.7079161e-22
2.8598458 	0.82473318 	-0.0056311058 	1.8696413e-22
2.8730459 	0.8068357 	-0.0050250729 	1.9944622e-22
2.8853295 	0.78858443 	-0.0044663455 	6.6872373e-22
2.8967603 	0.77013205 	-0.0039552867 	4.4884088e-22
2.9073974 	0.75160524 	-0.003491132 	-2.2473055e-22
2.9172961 	0.73310435 	-0.0030722156 	-6.82106e-22
2.9265075 	0.71470496 	-0.0026962027 	-4.5503724e-22
2.9350793 	0.69646048 	-0.0023603104 	-2.8212103e-22
2.9430561 	0.67840521 	-0.0020615019 	1.0465882e-22
2.950479 	0.66055747 	-0.0017966369 	-3.3523234e-23
2.9573866 	0.64292222 	-0.0015625904 	-1.3975906e-22
2.9638146 	0.62549348 	-0.001356335 	8.3914081e-23
2.9697963 	0.60825629 	-0.0011749981 	-2.8185764e-23
2.9753627 	0.59118824 	-0.0010158956 	-6.724816e-23
2.9805427 	0.57426053 	-0.00087655137 	-1.2507167e-23
2.985363 	0.55743874 	-0.00075470281 	2.7846943e-23
2.9898486 	0.54068322 	-0.00064830028 	4.2364319e-23
2.9940229 	0.52394914 	-0.00055549929 	-3.1772689e-25
2.9979073 	0.50718622 	-0.00047464936 	-1.476595e-23
3.001522 	0.49033798 	-0.00040428077 	-2.1714939e-23
3.0048858 	0.47334061 	-0.00034309 	8.0130856e-24
3.008016 	0.45612132 	-0.00028992535 	2.9765125e-23
3.0109289 	0.43859584 	-0.00024377252 	2.349025e-23
3.0136396 	0.42066496 	-0.00020374093 	2.3515914e-23
3.016162 	0.4022096 	-0.00016905106 	8.5699412e-24
3.0185094 	0.38308369 	-0.00013902274 	8.5744146e-24
3.0206937 	0.3631036 	-0.00011306467 	0
3.0227264 	0.34203234 	-9.0665221e-05 	1.5436251e-23
3.024618 	0.31955499 	-7.1384675e-05 	4.2796991e-24
3.0263783 	0.29523985 	-5.4849652e-05 	-1.1162308e-23
3.0280163 	0.26847619 	-4.0750129e-05 	-6.8632156e-24
3.0295406 	0.23837823 	-2.8838842e-05 	-1.4883551e-23
3.0309591 	0.20366789 	-1.8934771e-05 	-8.0204295e-24
3.0322791 	0.16270343 	-1.095518e-05 	5.7681642e-24
3.0335075 	0.11430069 	-5.0038102e-06 	1.2243698e-23
3.0346506 	0.059725769 	-1.2411284e-06 	6.4746383e-24
3.0357143 	0 	0 	0
