0.44815619 	0 	0 	0 	0 	0 	0
0.4490919 	0.0039842013 	-0.00015138762 	-2.0845682e-20 	0.0027993414 	2.4944185e-20 	0.0033919445
0.4500972 	0.0060243499 	-0.00034186125 	2.0521809e-20 	0.0033747305 	-3.6518855e-20 	0.0046998518
0.45117748 	0.0084751517 	-0.00059505373 	5.4292271e-20 	0.003926201 	-4.6121611e-20 	0.0062006345
0.45233831 	0.010694852 	-0.00083091176 	-8.6444088e-20 	0.0044562594 	2.6104445e-20 	0.0075754485
0.45358571 	0.012462106 	-0.0010165199 	1.6156134e-19 	0.0050113455 	-2.8205558e-19 	0.0087367318
0.45492613 	0.013838153 	-0.0011614818 	3.9967584e-19 	0.0055819506 	-1.0426413e-19 	0.009710112
0.4563665 	0.014933904 	-0.0012825973 	-1.2982051e-19 	0.0061499712 	4.6177856e-19 	0.010541993
0.45791427 	0.015835604 	-0.0013924308 	-3.1357881e-19 	0.0067069514 	9.7975208e-20 	0.011271324
0.45957744 	0.016601827 	-0.0014993962 	9.2095592e-20 	0.0072511235 	-3.2499486e-20 	0.011926519
0.46136461 	0.017271793 	-0.0016092456 	-1.3799423e-19 	0.0077835747 	2.3063653e-19 	0.012527729
0.46328502 	0.017872216 	-0.0017261488 	7.7243475e-20 	0.0083063338 	-1.2837063e-20 	0.013089323
0.4653486 	0.018421759 	-0.0018533437 	1.3984484e-19 	0.0088215916 	-1.1144679e-19 	0.013621727
0.46756601 	0.01893381 	-0.0019935207 	-5.5572568e-19 	0.0093314151 	-3.5945281e-19 	0.014132669
0.4699487 	0.019418225 	-0.0021490516 	2.2201749e-19 	0.0098376785 	-4.9887099e-20 	0.014628013
0.47250899 	0.019882427 	-0.0023221209 	1.569436e-19 	0.010342064 	2.592037e-19 	0.015112315
0.47526009 	0.02033215 	-0.0025148209 	-2.7469401e-19 	0.010846087 	-3.0214434e-19 	0.015589197
0.47821622 	0.020771917 	-0.0027292064 	4.4971145e-19 	0.011351134 	2.2767472e-20 	0.016061614
0.48139263 	0.021205366 	-0.002967324 	-2.5588814e-19 	0.011858494 	3.145207e-19 	0.016532029
0.48480572 	0.021635483 	-0.003231239 	-2.4600424e-19 	0.012369397 	4.3537492e-20 	0.017002549
0.4884731 	0.022064755 	-0.003523046 	4.1343622e-19 	0.012885039 	-2.8672161e-19 	0.017475019
0.49241369 	0.022495285 	-0.0038448761 	3.7894985e-19 	0.013406612 	9.378631e-20 	0.017951085
0.4966478 	0.022928872 	-0.0041989001 	-3.849402e-19 	0.013935326 	1.5067371e-19 	0.018432255
0.50119727 	0.023367059 	-0.004587329 	-5.510916e-19 	0.014472445 	-2.8748582e-20 	0.018919928
0.50608554 	0.023811165 	-0.0050124018 	-6.2891464e-19 	0.015019304 	-7.5171811e-19 	0.01941543
0.51133778 	0.024262295 	-0.0054763714 	1.3989227e-19 	0.015577331 	-4.1131712e-19 	0.01992003
0.51698105 	0.024721347 	-0.0059814989 	-3.2811615e-19 	0.016148086 	2.0403562e-19 	0.02043496
0.52304439 	0.025188994 	-0.0065300363 	1.4821026e-19 	0.016733308 	2.0301201e-19 	0.020961423
0.52955899 	0.025665663 	-0.0071242025 	1.2989966e-18 	0.017334933 	5.8055736e-19 	0.021500597
0.53655834 	0.026151483 	-0.0077661468 	1.5181104e-19 	0.017955137 	-3.3752293e-20 	0.022053642
0.54407843 	0.026646253 	-0.0084579336 	6.5502424e-19 	0.018596394 	4.7339674e-19 	0.022621693
0.55215787 	0.027149369 	-0.0092014984 	-3.3423913e-19 	0.019261526 	1.8861433e-19 	0.023205854
0.56083814 	0.027659716 	-0.0099985777 	-6.1418764e-19 	0.019953759 	-5.0486934e-19 	0.023807183
0.57016375 	0.028175594 	-0.010850663 	-4.0379178e-19 	0.02067678 	-2.6089303e-19 	0.024426675
0.58018253 	0.028694602 	-0.011758915 	-2.7904521e-19 	0.021434799 	-1.4403664e-20 	0.025065233
0.59094578 	0.029213486 	-0.012724051 	7.9178648e-19 	0.022232619 	4.8172465e-19 	0.025723632
0.60250858 	0.029728011 	-0.013746209 	-1.4070099e-18 	0.023075667 	-8.6880043e-19 	0.026402466
0.61493007 	0.030232793 	-0.014824774 	-4.0846951e-19 	0.023970037 	-2.7938391e-19 	0.027102091
0.62827371 	0.030721136 	-0.01595815 	5.6331044e-20 	0.024922487 	2.3529296e-19 	0.027822537
0.64260759 	0.031184891 	-0.017143476 	-8.9584991e-19 	0.025940388 	-8.6442458e-19 	0.028563412
0.6580048 	0.031614315 	-0.018376274 	2.7800481e-18 	0.0270316 	1.2712558e-18 	0.029323777
0.67454375 	0.031998006 	-0.019650025 	1.1641588e-18 	0.028204244 	1.0648529e-18 	0.030101986
0.69230856 	0.032322921 	-0.020955668 	-1.2200612e-18 	0.029466314 	-7.6329834e-19 	0.030895511
0.71138948 	0.032574511 	-0.022281031 	-4.7295043e-19 	0.030825101 	-4.4837375e-19 	0.031700718
0.73188331 	0.032737029 	-0.023610224 	-3.2063446e-19 	0.032286403 	7.9611078e-20 	0.032512626
0.75389385 	0.032794096 	-0.02492305 	5.5583069e-20 	0.033853404 	-1.8090055e-20 	0.03332463
0.77753244 	0.032729543 	-0.026194498 	-1.8954776e-18 	0.035525244 	-9.0641944e-19 	0.034128216
0.80291842 	0.032528588 	-0.027394458 	3.2600289e-19 	0.037295291 	1.4410996e-19 	0.034912669
0.83017976 	0.032179326 	-0.028487792 	1.737584e-18 	0.039149142 	7.2082048e-19 	0.035664822
0.85945361 	0.031674474 	-0.029434935 	1.0676879e-18 	0.041062506 	3.6618178e-19 	0.036368865
0.89088696 	0.031013276 	-0.030193194 	1.599635e-18 	0.042999031 	7.8904713e-19 	0.037006276
0.9246373 	0.030203389 	-0.030719052 	-3.8791305e-19 	0.044908394 	1.1219728e-19 	0.037555877
0.96087337 	0.029262128 	-0.030970992 	-5.8215384e-19 	0.046725047 	-4.0063349e-19 	0.037993459
0.99977589 	0.028215553 	-0.030910977 	4.764223e-20 	0.048367768 	-1.6705686e-19 	0.038291222
1.0415384 	0.027099843 	-0.030516232 	-3.2413218e-19 	0.049752206 	-1.1561751e-19 	0.038425243
1.0863682 	0.025957954 	-0.029780826 	-5.9222807e-19 	0.050793098 	-2.1023137e-19 	0.038374645
1.134487 	0.024831402 	-0.028709125 	-1.2471856e-19 	0.051399138 	-5.8621496e-20 	0.038114481
1.1861323 	0.023757171 	-0.027324985 	7.6480602e-19 	0.051489803 	1.6432143e-19 	0.03762272
1.2415581 	0.022761642 	-0.025670871 	-6.6785461e-19 	0.05100717 	-1.2376592e-19 	0.036883585
1.3010362 	0.021853876 	-0.023801322 	6.9914477e-19 	0.049922367 	1.1338346e-19 	0.035887229
1.3648572 	0.021022875 	-0.021776786 	3.4034552e-20 	0.048239779 	6.4469223e-21 	0.034630545
1.4333319 	0.020239237 	-0.01965944 	-1.4229201e-18 	0.046001667 	-1.7397589e-19 	0.033120009
1.5067925 	0.019458208 	-0.017507084 	-2.7969131e-20 	0.043284682 	-1.3890155e-20 	0.031369646
1.5855941 	0.018621716 	-0.015359727 	3.2199121e-19 	0.040172848 	-7.7259664e-20 	0.029395717
1.6701161 	0.017689351 	-0.013268434 	3.9703276e-19 	0.036755581 	6.8373127e-20 	0.027224436
1.7201517 	0.017117036 	-0.012192269 	1.9274055e-19 	0.034794908 	5.7158462e-20 	0.025957127
1.7607693 	0.016656845 	-0.011318232 	2.0573979e-20 	0.033194374 	4.6548615e-20 	0.024926127
1.8512441 	0.015551189 	-0.009593861 	2.0569979e-19 	0.029804115 	1.5413312e-21 	0.022674827
1.9352735 	0.014422824 	-0.0080987807 	-9.4005756e-20 	0.02683442 	-1.9114728e-20 	0.020627143
2.0133292 	0.013327244 	-0.0067882884 	-3.5676326e-19 	0.024304864 	-3.2790924e-20 	0.018815853
2.0858468 	0.012307933 	-0.0056300837 	4.3934307e-19 	0.022149398 	6.4421453e-21 	0.01722836
2.153228 	0.011389169 	-0.0045987289 	3.4411427e-20 	0.020304551 	5.7638146e-21 	0.015846653
2.2158443 	0.010581837 	-0.0036752916 	-1.6620379e-19 	0.018719442 	2.0761296e-20 	0.014650497
2.2740391 	0.0098876201 	-0.0028444996 	-2.8599396e-19 	0.017351377 	-1.8352879e-20 	0.013619404
2.3281301 	0.0093025275 	-0.0020939918 	-3.8596443e-19 	0.016165421 	-5.0162809e-20 	0.012733917
2.3784113 	0.0088192879 	-0.0014137134 	3.8001739e-19 	0.015133491 	1.5348712e-20 	0.011976363
2.4251549 	0.0084289495 	-0.00079546661 	-4.7539417e-20 	0.014233519 	1.6532696e-21 	0.01133123
2.4686132 	0.0081218827 	-0.00023252519 	1.4576213e-19 	0.013448642 	3.4741936e-20 	0.01078527
2.5090199 	0.0078884629 	0.00028067693 	-1.3510277e-19 	0.012766356 	1.5227542e-20 	0.010327421
2.5465917 	0.0077195519 	0.00074876881 	-2.0132952e-19 	0.012177611 	-2.8475066e-20 	0.0099485853
2.5815297 	0.0076068024 	0.0011756511 	1.7667796e-20 	0.011675835 	-3.1306364e-20 	0.00964131
2.6140201 	0.0075428424 	0.0015646251 	7.0115472e-20 	0.011255943 	-2.8746427e-20 	0.0093993742
2.6442361 	0.0075212914 	0.0019184636 	2.2964254e-19 	0.010913421 	3.7082906e-20 	0.0092173252
2.672338 	0.0075366377 	0.0022393852 	3.3453646e-20 	0.010643463 	4.86182e-20 	0.0090899991
2.698475 	0.0075845478 	0.0025296946 	-1.1243331e-19 	0.010441469 	-7.3177619e-21 	0.0090129616
2.7227854 	0.0076600194 	0.0027910475 	-9.4715018e-20 	0.010300033 	-3.117004e-20 	0.0089800034
2.7453976 	0.007757472 	0.003024474 	5.5464252e-20 	0.010209531 	-9.508068e-21 	0.0089834815
2.766431 	0.0078725879 	0.0032315711 	1.1147806e-19 	0.010161818 	2.1091314e-20 	0.0090171836
2.7859964 	0.0080011249 	0.0034138902 	-2.4824804e-20 	0.010148473 	1.3070798e-20 	0.0090747923
2.8041967 	0.0081386731 	0.003572992 	-1.4239404e-19 	0.010160786 	-2.1619015e-20 	0.0091497328
2.8211278 	0.0082812221 	0.0037107565 	2.4545989e-20 	0.010190841 	-2.8061523e-20 	0.0092360409
2.8368784 	0.0084253735 	0.0038293241 	6.9932397e-20 	0.010231907 	6.9972259e-22 	0.0093286537
2.8515313 	0.0085684474 	0.0039310408 	6.2662027e-20 	0.010278615 	3.831894e-20 	0.0094235471
2.8651631 	0.0087085139 	0.0040183783 	-4.8485696e-20 	0.010326975 	2.7804396e-20 	0.0095177609
2.8778453 	0.0088443589 	0.0040938437 	-9.5159656e-20 	0.010374285 	-3.4032965e-20 	0.0096093387
2.8896443 	0.0089753788 	0.004159877 	2.4704795e-20 	0.010418947 	-1.8373398e-20 	0.0096971791
2.9006217 	0.0091014536 	0.0042187692 	2.9367018e-21 	0.010460244 	2.6318493e-20 	0.0097808642
2.910835 	0.0092228175 	0.0042726003 	-1.9875488e-20 	0.010498131 	-9.4946016e-21 	0.0098604883
2.9203374 	0.0093399383 	0.0043231999 	2.9009952e-20 	0.010533032 	-2.2436054e-20 	0.009936498
2.9291785 	0.0094534121 	0.0043721248 	1.4366416e-20 	0.010565673 	1.5160723e-20 	0.010009554
2.9374045 	0.0095638748 	0.0044206486 	-4.5338408e-20 	0.010596935 	1.3037972e-20 	0.010080415
2.9450582 	0.0096719325 	0.0044697635 	3.7173181e-21 	0.010627738 	-5.8727397e-21 	0.010149843
2.9521795 	0.0097781069 	0.0045201952 	4.2700129e-20 	0.010658936 	-1.6808352e-21 	0.010218529
2.9588056 	0.0098827649 	0.004572403 	8.7163495e-22 	0.010691219 	4.2457502e-21 	0.010286999
2.9649709 	0.0099860788 	0.0046266 	-1.1596028e-20 	0.010725055 	-2.5619972e-21 	0.010355573
2.9707075 	0.010088006 	0.0046827668 	-1.1655562e-20 	0.010760675 	-9.5231679e-21 	0.010424344
2.9760453 	0.010188316 	0.0047406857 	-6.0344024e-21 	0.010798085 	2.5826417e-21 	0.010493203
2.981012 	0.010286592 	0.0047999827 	1.2275554e-20 	0.010837047 	3.4573425e-21 	0.010561822
2.9856335 	0.010382088 	0.0048600837 	2.4103036e-20 	0.010876917 	-1.8565329e-21 	0.010629504
2.9899337 	0.010473695 	0.0049202325 	-4.0358624e-22 	0.01091662 	6.1532025e-21 	0.010695159
2.9939351 	0.010559989 	0.0049795381 	-1.5204863e-20 	0.010954717 	6.8965803e-23 	0.010757354
2.9976584 	0.010639206 	0.0050369703 	4.2780641e-21 	0.010989385 	-6.8920648e-21 	0.010814297
3.001123 	0.01070922 	0.0050913561 	9.6335237e-21 	0.011018397 	1.2072909e-21 	0.01086381
3.0043468 	0.010767504 	0.0051413798 	-7.6673123e-21 	0.011039097 	4.0689137e-21 	0.010903302
3.0073466 	0.010811056 	0.0051855229 	-6.5867368e-21 	0.011048323 	-1.10226e-21 	0.010929691
3.0101381 	0.010836441 	0.0052221037 	7.6983776e-22 	0.011042472 	-1.2633527e-21 	0.010939458
3.0127355 	0.010839639 	0.005249181 	2.6095089e-22 	0.011017344 	-2.10566e-22 	0.010928492
3.0151526 	0.010815841 	0.0052644084 	1.2367412e-21 	0.010967943 	-1.8437955e-21 	0.010891893
3.0174017 	0.010759363 	0.0052649651 	3.8039731e-21 	0.010888401 	2.3208093e-21 	0.010823883
3.0194946 	0.010663352 	0.0052472993 	-3.5420048e-21 	0.010771686 	2.4965078e-21 	0.01071752
3.0214421 	0.010519396 	0.0052067916 	-2.5296226e-21 	0.010609216 	-1.8641532e-21 	0.010564307
3.0232543 	0.01031698 	0.0051372091 	7.1320672e-22 	0.010390315 	-9.9295527e-22 	0.010353648
3.0249407 	0.010042707 	0.0050298202 	1.2758626e-21 	0.010101439 	2.5789645e-22 	0.010072074
3.0265099 	0.0096792393 	0.004871928 	7.3648662e-22 	0.0097251156 	1.723474e-22 	0.0097021785
3.0279701 	0.0092039606 	0.0046444069 	-3.750948e-22 	0.0092386137 	3.4269943e-22 	0.0092212887
3.029329 	0.0085878142 	0.0043177575 	-1.2131371e-22 	0.0086127839 	5.1567213e-23 	0.0086003008
3.0305934 	0.0077964513 	0.0038474233 	-9.2065581e-23 	0.0078132254 	-1.776963e-22 	0.0078048377
3.0317701 	0.0068020122 	0.0031784247 	1.0550432e-22 	0.0068120987 	1.7465717e-22 	0.0068070499
3.032865 	0.0056303193 	0.0023021006 	-3.3184007e-23 	0.0056353722 	-8.3764341e-24 	0.0056328446
3.0338839 	0.0044736038 	0.0013875319 	1.0917699e-25 	0.0044754956 	-1.3353452e-22 	0.0044745672
3.034832 	0.0037953199 	0.00074759903 	5.3197935e-24 	0.0037958047 	9.5831622e-24 	0.0037955689
3.0357143 	0 	0 	0 	0 	0 	0
