/*--------------------------------*- C++ -*----------------------------------*\
| =========                 |                                                 |
| \\      /  F ield         | OpenFOAM: The Open Source CFD Toolbox           |
|  \\    /   O peration     | Version:  2.4.0                                 |
|   \\  /    A nd           | Web:      www.OpenFOAM.org                      |
|    \\/     M anipulation  |                                                 |
\*---------------------------------------------------------------------------*/
FoamFile
{
    version     2.0;
    format      ascii;
    class       volScalarField;
    location    "90";
    object      epsilon;
}
// * * * * * * * * * * * * * * * * * * * * * * * * * * * * * * * * * * * * * //

dimensions      [0 2 -3 0 0 0 0];

internalField   nonuniform List<scalar> 
32000
(
11.406425
2.0974445
8.6581475
1.9156353
1.2465253
0.017836348
0.064708836
0.0019008603
0.0099062394
0.0041806877
0.0042676203
0.0031337586
0.0026555569
0.0021963945
0.0018720081
0.001614483
0.0014181803
0.0012745802
0.0011666917
0.0010786467
0.0010025281
0.0009352631
0.00087388211
0.00081687939
0.00076241869
0.0007096309
0.00065597135
0.00060121218
0.00054817675
0.0004987478
0.00045329493
0.00041182488
0.00037430525
0.00034063638
0.00031094974
0.00028594507
0.00026622107
0.00025070193
0.00023818453
0.00022838459
0.00022142741
0.00021757798
0.0002173797
0.00022156724
0.00023202632
0.00025144171
0.00029646206
0.00035213619
0.00039062094
0.00042410457
0.00045343759
0.00048010335
0.00050443984
0.00052686006
0.00054759241
0.00056683539
0.00058474076
0.00060143606
0.00061702659
0.0006316043
0.0006452505
0.00065803566
0.00067002271
0.00068126854
0.00069182407
0.00070173518
0.00071104447
0.00071979023
0.00072800708
0.00073572733
0.00074298055
0.00074979475
0.00075619426
0.00076220319
0.00076784269
0.00077313247
0.00077809417
0.00078274275
0.00078710159
0.00079117976
0.00079500137
0.00079856407
0.00080186292
0.00080492123
0.00080774581
0.00081035285
0.00081274939
0.00081495488
0.00081691427
0.0008187569
0.00082038578
0.00082183604
0.00082311295
0.00082422003
0.00082516019
0.00082593689
0.00082655199
0.0008270074
0.00082730457
0.00082744312
0.00082742209
0.00082724948
0.00082692035
0.00082642978
0.00082577932
0.00082496695
0.0008239902
0.00082284619
0.00082153173
0.00082004282
0.00081837474
0.00081652279
0.00081448124
0.00081224369
0.00080980358
0.00080715325
0.00080428446
0.00080118851
0.0007978553
0.00079427436
0.00079043442
0.00078632275
0.00078192616
0.00077723029
0.0007722189
0.00076687534
0.0007611816
0.00075511724
0.00074866141
0.00074179105
0.00073448021
0.00072670242
0.00071842854
0.00070962543
0.00070025881
0.00069029062
0.00067967848
0.00066837719
0.00065633582
0.00064349807
0.00062980148
0.00061517608
0.00059954217
0.00058280925
0.00056487118
0.00054560189
0.00052485275
0.0005024261
0.00047809549
0.00045145123
0.00042215877
0.00038873488
0.00035033563
0.00029493232
0.00025021228
0.00023100053
0.00022056198
0.00021630303
0.0002165366
0.00022023705
0.00022700663
0.00023682132
0.00024932206
0.00026486275
0.00028439564
0.00030907358
0.00033862536
0.00037192284
0.00040897518
0.00044987979
0.00049464068
0.0005433229
0.00059544869
0.00064928759
0.00070184138
0.0007529309
0.00080495293
0.00086096952
0.00092027588
0.00098527702
0.0010585555
0.0011430482
0.00124625
0.0013840432
0.0015734338
0.001818035
0.0021369139
0.0025390761
0.0031177162
0.0037232591
0.0051505567
0.0051204278
0.011521446
0.0024643335
0.060970213
0.01710909
1.1542705
2.0587134
9.4512025
2.1628997
6.7060837
1.4813512
5.2556527
1.3636167
0.91229626
0.020715177
0.055573614
0.0020504545
0.0090106277
0.0039189764
0.0039753654
0.0029425203
0.0024979093
0.0020720025
0.0017689722
0.0015277649
0.0013432103
0.0012075929
0.0011054517
0.0010220777
0.00095000116
0.00088634015
0.00082826857
0.0007743389
0.00072283414
0.00067291587
0.00062222505
0.00057050033
0.00052034764
0.0004735548
0.00043049419
0.00039118731
0.00035560863
0.00032366644
0.00029547435
0.00027166872
0.00025280977
0.00023793188
0.00022592088
0.00021649037
0.00020974056
0.00020590659
0.00020548184
0.00020913742
0.00021858685
0.00023627897
0.0002771923
0.00032847739
0.0003649797
0.0003966995
0.00042437575
0.00044927924
0.00047157973
0.00049173434
0.00051002079
0.00052664778
0.00054220523
0.0005570234
0.00057096581
0.00058396019
0.0005960986
0.00060740822
0.00061793888
0.00062776178
0.00063696104
0.00064563072
0.0006538735
0.00066179774
0.00066951122
0.000677105
0.00068461573
0.00069193038
0.00069898608
0.00070572346
0.00071200273
0.00071766105
0.00072257588
0.00072672071
0.00073019294
0.0007331271
0.00073564185
0.00073774493
0.00073969303
0.0007416677
0.00074373504
0.00074587776
0.00074803852
0.00075018675
0.00075225048
0.00075431712
0.0007562847
0.00075814442
0.000759819
0.0007612704
0.00076249658
0.0007634942
0.00076427089
0.00076484211
0.00076522463
0.00076542976
0.00076546223
0.00076532797
0.00076501821
0.00076452358
0.00076384341
0.00076298484
0.00076195738
0.00076075936
0.00075943151
0.00075800229
0.00075649061
0.00075490948
0.0007532644
0.00075155863
0.00074979034
0.00074794448
0.00074597826
0.00074381475
0.00074132058
0.00073835566
0.00073485691
0.00073086801
0.00072648451
0.00072178093
0.00071677849
0.0007114739
0.00070586556
0.00069994245
0.00069368836
0.00068708185
0.00068009644
0.00067270398
0.00066487369
0.00065657062
0.0006477589
0.00063839936
0.00062844902
0.00061786245
0.00060658926
0.00059457416
0.0005817564
0.00056806846
0.00055343382
0.0005377661
0.00052096468
0.0005029108
0.00048346454
0.00046244378
0.00043963553
0.00041467864
0.00038724155
0.00035609825
0.0003203876
0.00027181592
0.0002338524
0.00021768853
0.00020910784
0.00020601205
0.00020695315
0.00021106816
0.0002180342
0.00022783275
0.00024018161
0.0002554376
0.00027447225
0.0002982535
0.00032646091
0.00035809588
0.00039316457
0.00043173659
0.00047379548
0.00051935237
0.000567899
0.00061782306
0.00066656099
0.00071413479
0.000762802
0.00081523338
0.00087086676
0.00093192794
0.0010007924
0.001080225
0.0011771713
0.001305895
0.0014813355
0.0017085842
0.0020029111
0.0023709305
0.0028949815
0.0034424573
0.0047014382
0.0047117
0.010163668
0.0027255326
0.050718071
0.017439007
0.83679773
1.4377275
5.6749103
1.5213348
4.073532
1.060712
3.2793532
0.98297766
0.67270562
0.022823114
0.047563362
0.0021636754
0.0081611072
0.0036617785
0.0036906647
0.0027544047
0.0023425343
0.0019489767
0.00166688
0.0014417281
0.0012688002
0.0011411221
0.0010447059
0.00096598488
0.00089793276
0.00083786001
0.0007830794
0.0007321994
0.00068362076
0.00063653483
0.00058876631
0.00054002768
0.00049271587
0.00044852517
0.00040782989
0.00037066563
0.00033701293
0.00030678737
0.00028008433
0.00025747679
0.00023948534
0.0002252521
0.00021375166
0.00020469622
0.00019816119
0.00019435223
0.00019371359
0.00019685362
0.00020531746
0.0002213177
0.00025822491
0.00030528932
0.00033994877
0.00037005128
0.00039619984
0.00041945631
0.00043981032
0.0004577619
0.00047364279
0.00048768008
0.00050092476
0.00051391936
0.00052626745
0.00053773165
0.00054841189
0.00055829023
0.00056740314
0.00057583729
0.00058371196
0.00059117192
0.00059838287
0.0006055267
0.00061278801
0.00062032033
0.00062816975
0.00063608854
0.00064391415
0.00065149607
0.00065852362
0.00066463947
0.00066956647
0.00067323221
0.00067581183
0.00067757361
0.00067873897
0.00067933347
0.00067988554
0.00068074441
0.00068203812
0.00068371405
0.00068564716
0.00068775441
0.00068994501
0.00069226451
0.00069460406
0.0006969101
0.00069902493
0.00070085949
0.0007024049
0.00070365014
0.00070460872
0.00070531048
0.00070578848
0.00070606662
0.00070615579
0.00070606
0.00070576631
0.00070526067
0.00070454008
0.0007036214
0.00070252815
0.00070126054
0.00069990362
0.00069852037
0.00069715487
0.00069583899
0.00069459033
0.00069342258
0.00069233907
0.00069131691
0.00069027709
0.00068907566
0.00068744266
0.00068509815
0.00068192194
0.00067801747
0.00067359718
0.00066883523
0.00066378612
0.00065846319
0.00065288252
0.00064704295
0.00064093306
0.00063453298
0.00062781542
0.00062075027
0.00061330476
0.00060544178
0.00059712354
0.00058830946
0.00057895566
0.00056901623
0.0005584411
0.00054717583
0.00053516124
0.00052233218
0.00050861534
0.00049392849
0.00047817678
0.00046124906
0.00044301487
0.00042330843
0.00040193248
0.00037857562
0.00035292014
0.00032399823
0.00029101659
0.00024911596
0.00021774961
0.00020461531
0.00019788569
0.00019595342
0.00019760596
0.00020214093
0.00020930873
0.00021909793
0.00023130152
0.00024627719
0.00026481231
0.00028769135
0.00031454835
0.00034451261
0.00037758692
0.00041381356
0.00045315582
0.00049557209
0.00054052784
0.00058653718
0.00063146661
0.00067553004
0.00072083876
0.00076968274
0.00082163727
0.00087874777
0.00094318334
0.0010175327
0.0011081801
0.0012277692
0.0013892447
0.0015992798
0.001869263
0.0022035133
0.0026740215
0.0031643665
0.0042618097
0.0043073697
0.0088765298
0.0029292241
0.041660831
0.017265174
0.60712506
1.0133566
3.5099635
1.0849984
2.5424831
0.76879677
2.0944332
0.71678824
0.49977164
0.024269263
0.040581115
0.0022420647
0.0073591079
0.0034098289
0.0034143519
0.0025699705
0.0021898931
0.0018276745
0.0015660218
0.0013566121
0.001195155
0.0010753507
0.00098462212
0.00091052399
0.00084646834
0.00078995919
0.0007384432
0.00069058144
0.00064489115
0.0006005921
0.00055569027
0.00050987955
0.00046535715
0.00042372572
0.00038536054
0.00035031072
0.00031856217
0.00029003701
0.00026481232
0.00024339812
0.0002262745
0.00021268796
0.00020170122
0.00019302628
0.00018671444
0.00018294244
0.00018210664
0.00018475368
0.00019226574
0.00020661929
0.00023965553
0.0002826819
0.00031562081
0.00034424856
0.00036899691
0.0003907211
0.00040922046
0.00042503013
0.00043854298
0.00045001768
0.00046098765
0.00047221506
0.00048302402
0.00049301422
0.00050228879
0.00051078318
0.00051852036
0.00052560341
0.00053218838
0.00053847264
0.00054468705
0.0005510894
0.00055794396
0.00056547034
0.00057372842
0.00058235229
0.00059106319
0.00059961151
0.00060750645
0.00061418331
0.00061919687
0.00062242011
0.00062410647
0.00062466605
0.00062443411
0.00062346815
0.00062257538
0.00062228241
0.00062278156
0.0006239833
0.00062569202
0.00062776996
0.00063010532
0.00063270248
0.00063544357
0.00063823024
0.00064083038
0.00064309114
0.00064499359
0.00064651756
0.0006476821
0.00064853198
0.00064911762
0.00064947649
0.00064962635
0.0006495695
0.0006492887
0.00064876491
0.00064799273
0.00064699917
0.00064582429
0.00064447194
0.00064307023
0.00064171885
0.00064048883
0.0006394323
0.00063858013
0.00063795749
0.00063757354
0.00063739707
0.0006373138
0.00063711211
0.0006363696
0.00063465288
0.00063177791
0.00062791302
0.0006234004
0.00061852642
0.00061337099
0.00060796959
0.00060235692
0.00059654203
0.00059051833
0.0005842673
0.00057776048
0.00057096544
0.00056384703
0.0005563656
0.00054848112
0.00054015129
0.00053133106
0.00052197386
0.00051202978
0.0005014451
0.00049016224
0.00047811844
0.00046524375
0.00045146044
0.00043667989
0.0004207993
0.00040369895
0.00038523082
0.00036521711
0.00034339821
0.00031948694
0.00029277394
0.00026264106
0.00022715966
0.00020206657
0.00019188152
0.00018696331
0.00018617463
0.00018852962
0.00019348043
0.00020084731
0.00021062787
0.00022268627
0.0002373771
0.00025539972
0.00027736045
0.00030285376
0.00033113237
0.00036219538
0.0003960587
0.00043266646
0.00047192686
0.00051328675
0.00055539718
0.00059654273
0.00063711431
0.00067906998
0.00072433625
0.00077261647
0.00082577568
0.0008857784
0.00095503134
0.0010393456
0.0011497555
0.0012973003
0.0014903193
0.0017362472
0.0020372632
0.0024555774
0.0028900439
0.0038341336
0.003908436
0.0076719245
0.0030577674
0.03378356
0.016654634
0.44037941
0.72009279
2.2255875
0.78361312
1.6235114
0.56328843
1.3645656
0.52825896
0.3741596
0.025146776
0.034533699
0.0022875312
0.0066057259
0.0031638528
0.0031472171
0.0023897685
0.0020404439
0.0017084555
0.0014666909
0.0012726597
0.0011224823
0.0010104636
0.0009253693
0.00085585149
0.00079575366
0.00074277427
0.00069448851
0.00064960557
0.000606758
0.00056519231
0.00052309266
0.00048014212
0.0004383482
0.0003992242
0.00036314557
0.00033017428
0.00030030096
0.00027345366
0.00024969117
0.00022946151
0.00021320381
0.00020026454
0.0001897935
0.00018150409
0.00017542464
0.00017170375
0.00017069148
0.00017287405
0.0001794776
0.00019224381
0.00022157717
0.00026075932
0.00029208018
0.00031936926
0.00034284398
0.00036314877
0.00037988919
0.00039361734
0.00040479809
0.00041374057
0.00042247891
0.00043199829
0.00044132493
0.00044990027
0.0004578248
0.00046498641
0.00047139451
0.00047716921
0.00048250423
0.00048765043
0.00049290452
0.00049860096
0.00050508518
0.00051264613
0.00052136406
0.00053078148
0.00054048577
0.00055012111
0.00055900917
0.00056636495
0.00057155868
0.00057439426
0.00057519864
0.00057453028
0.00057285215
0.00057027644
0.00056789188
0.00056641152
0.00056609297
0.00056680843
0.00056828988
0.00057034307
0.00057283299
0.00057572433
0.00057888805
0.00058218227
0.00058530979
0.00058803991
0.00059033907
0.0005921758
0.00059357354
0.00059459206
0.00059529995
0.00059574927
0.00059596546
0.00059594967
0.00059568018
0.00059513276
0.00059429941
0.00059321754
0.00059194604
0.0005904962
0.00058903554
0.00058770288
0.00058659808
0.00058579516
0.00058533984
0.00058527004
0.00058560168
0.00058629443
0.00058720414
0.00058804521
0.00058822491
0.00058714006
0.00058453613
0.00058065517
0.00057598998
0.00057094615
0.00056562206
0.00056008082
0.00055437639
0.00054852814
0.00054253403
0.00053637652
0.00053002551
0.00052344577
0.00051659937
0.00050944372
0.00050193624
0.00049403264
0.00048568651
0.00047685049
0.00046747474
0.00045750633
0.0004468893
0.00043556356
0.00042346286
0.00041051453
0.00039663698
0.00038173691
0.00036570711
0.00034841954
0.0003297207
0.00030940599
0.00028723897
0.00026276794
0.00023564927
0.00020625178
0.0001869643
0.00017958489
0.0001764047
0.00017671827
0.00017975262
0.00018510444
0.00019265863
0.00020242379
0.00021432882
0.00022871961
0.0002462037
0.00026721867
0.00029132717
0.00031789805
0.00034692665
0.00037840393
0.00041225767
0.00044834924
0.00048611809
0.00052436346
0.00056176866
0.00059888137
0.00063750009
0.00067921144
0.00072383345
0.00077305196
0.00082862979
0.00089278445
0.00097074262
0.0010719532
0.0012056608
0.0013819258
0.0016041809
0.0018726778
0.0022404774
0.0026206919
0.0034209798
0.0035164638
0.0065594813
0.0031009158
0.027043303
0.015679875
0.3190419
0.51539021
1.4415396
0.57256564
1.0567535
0.41666967
0.90432405
0.3931386
0.28237363
0.025539308
0.029332294
0.0023023744
0.0059016866
0.0029245531
0.0028899873
0.0022143299
0.001894631
0.0015916729
0.0013691775
0.0011901118
0.0010509875
0.00094664303
0.00086711387
0.00080212107
0.00074593159
0.0006964389
0.00065134099
0.00060938961
0.00056933157
0.000530438
0.00049106763
0.00045090042
0.00041176496
0.00037508791
0.00034124406
0.00031030779
0.00028227375
0.00025707533
0.00023475335
0.00021569533
0.00020029925
0.00018800633
0.00017805176
0.00017015236
0.00016431503
0.00016066132
0.00015949686
0.00016124909
0.00016699637
0.00017824863
0.00020407783
0.00023961787
0.0002694018
0.00029547912
0.00031780671
0.00033680124
0.00035188454
0.00036359211
0.00037247691
0.00037892365
0.00038548088
0.00039335436
0.00040125763
0.00040848027
0.00041511383
0.00042099854
0.00042613026
0.00043064623
0.00043477771
0.00043882846
0.00044315983
0.00044818154
0.00045431975
0.0004619354
0.00047113807
0.00048141452
0.00049220296
0.00050303636
0.00051304437
0.00052121005
0.00052669981
0.00052922732
0.00052918065
0.0005272696
0.00052410088
0.00051987524
0.00051595965
0.00051326117
0.00051210174
0.00051231435
0.00051355812
0.00051558149
0.00051822434
0.00052141387
0.00052500831
0.00052882484
0.00053251319
0.00053575164
0.00053848614
0.00054067076
0.0005423313
0.00054354177
0.00054438923
0.00054494124
0.0005452319
0.00054526186
0.00054500502
0.00054443175
0.00054353118
0.00054235095
0.00054097039
0.00053941453
0.00053788401
0.0005365591
0.00053557057
0.00053501614
0.0005349583
0.00053544936
0.00053651299
0.00053809847
0.00054004382
0.00054197276
0.00054310358
0.0005426447
0.00054026628
0.00053629861
0.00053141862
0.00052614192
0.00052058555
0.00051484368
0.00050898968
0.00050305288
0.00049703522
0.00049091944
0.00048467318
0.00047825794
0.00047163251
0.00046475101
0.00045756802
0.00045003709
0.00044211033
0.00043373954
0.00042487502
0.00041546474
0.00040545468
0.00039478777
0.00038340206
0.00037123076
0.00035820041
0.00034422874
0.00032922343
0.00031307915
0.00029567242
0.00027685791
0.00025647063
0.00023431169
0.00021037935
0.00018665385
0.00017259087
0.0001678138
0.00016626545
0.00016761839
0.00017129423
0.00017702053
0.0001847402
0.00019447433
0.00020620779
0.00022027097
0.00023717662
0.00025720672
0.00027990107
0.00030473502
0.00033170033
0.00036076596
0.00039184578
0.00042476072
0.00045895639
0.00049339083
0.00052711933
0.00056082172
0.00059613201
0.00063432551
0.0006753182
0.00072061917
0.00077179337
0.00083086074
0.00090245425
0.00099447662
0.0011145089
0.0012743508
0.0014734258
0.0017103188
0.0020296352
0.0023576425
0.0030249108
0.0031335317
0.0055460387
0.0030561741
0.021371293
0.014421086
0.23065372
0.37118713
0.950958
0.42282111
0.6991284
0.31077293
0.60823382
0.29520388
0.21490949
0.025523964
0.024893029
0.0022893008
0.0052473308
0.002692604
0.0026433162
0.002044159
0.0017528794
0.0014776697
0.0012737653
0.0011092049
0.00098087211
0.00088406735
0.00081001791
0.00074948202
0.00069714054
0.00065108221
0.0006091219
0.00057004721
0.00053271831
0.00049642847
0.00045970666
0.00042223746
0.00038568185
0.000351383
0.00031971435
0.00029076212
0.00026452449
0.00024093965
0.00022003094
0.00020212744
0.00018758625
0.00017593719
0.00016649853
0.00015899292
0.00015340771
0.00014983879
0.00014854952
0.00014991059
0.00015486194
0.00016468714
0.00018723801
0.00021934375
0.00024765016
0.00027263046
0.00029393832
0.0003117253
0.00032526224
0.00033501278
0.00034164048
0.00034563727
0.00035007409
0.0003563671
0.00036290865
0.00036884391
0.00037424947
0.00037891882
0.00038283436
0.00038614987
0.00038913274
0.00039213712
0.00039558552
0.00039995888
0.00040576119
0.00041342692
0.00042310629
0.00043427372
0.00044620916
0.00045833256
0.00046958123
0.00047869716
0.00048462214
0.00048695134
0.00048611205
0.00048296258
0.00047827
0.00047237053
0.00046689855
0.00046296056
0.00046093951
0.00046062875
0.00046161595
0.00046359277
0.00046637252
0.00046984808
0.00047386415
0.00047820109
0.0004824694
0.0004862463
0.00048945021
0.00049201667
0.00049397064
0.00049539856
0.00049640557
0.00049707528
0.00049745144
0.00049753518
0.00049729627
0.00049669954
0.00049573093
0.00049444773
0.00049294973
0.00049128543
0.00048967897
0.00048835443
0.00048747542
0.00048716543
0.00048750603
0.00048856578
0.00049037718
0.00049287714
0.00049590694
0.00049896699
0.00050106909
0.00050121278
0.00049899208
0.00049484903
0.00048969425
0.00048411551
0.00047826385
0.00047226336
0.00046620627
0.0004601309
0.00045404212
0.000447922
0.00044173521
0.00043543934
0.00042898947
0.0004223361
0.00041543081
0.00040822483
0.00040066879
0.00039271381
0.00038431045
0.00037540792
0.00036595456
0.00035589692
0.00034517813
0.00033373838
0.00032151374
0.00030843483
0.00029442695
0.00027941069
0.00026329859
0.00024600903
0.000227466
0.00020770923
0.00018710213
0.00016856692
0.00015907065
0.00015664145
0.00015658867
0.00015889749
0.00016316189
0.00016922376
0.00017707615
0.00018675315
0.00019828508
0.00021197929
0.00022825242
0.00024724719
0.00026849017
0.00029155141
0.00031641992
0.00034304756
0.00037133623
0.00040107562
0.00043173281
0.00046243276
0.0004925693
0.00052292652
0.00055497126
0.00058969945
0.00062710585
0.00066852659
0.00071533334
0.00076933952
0.00083457856
0.00091746216
0.0010240602
0.0011678825
0.0013443986
0.0015508193
0.0018240487
0.0021023428
0.0026484037
0.0027621819
0.0046353269
0.0029284286
0.016677586
0.012964222
0.1662764
0.26873392
0.63739119
0.31523406
0.46908456
0.23341958
0.41447064
0.22346361
0.1650242
0.025171818
0.021137741
0.0022514309
0.0046426071
0.0024686451
0.0024077753
0.0018797278
0.0016155903
0.0013667751
0.0011807289
0.001030169
0.00091233153
0.00082290876
0.00075423755
0.0006980776
0.00064951296
0.00060682734
0.00056794668
0.00053168652
0.0004970196
0.00046325856
0.00042909756
0.00039423331
0.00036017104
0.00032817394
0.0002986135
0.00027158725
0.00024709649
0.00022508372
0.00020555557
0.0001887853
0.00017508973
0.00016408041
0.00015515575
0.00014804678
0.0001427236
0.00013925807
0.00013787379
0.00013888715
0.00014310984
0.00015160727
0.00017112818
0.00020001106
0.00022687865
0.00025086154
0.00027127332
0.00028795655
0.00030006471
0.00030792714
0.00031234238
0.00031394786
0.00031633796
0.00032111986
0.00032636467
0.00033108122
0.00033532609
0.00033884817
0.00034161662
0.00034380025
0.00034569969
0.00034771485
0.00035032327
0.00035407004
0.00035953132
0.00036721509
0.00037732505
0.00038937213
0.00040247891
0.00041595488
0.00042854977
0.00043875957
0.00044528064
0.00044755511
0.00044601654
0.00044166069
0.00043543311
0.00042785654
0.00042082288
0.00041563779
0.00041273943
0.00041188183
0.00041258475
0.00041448517
0.00041736925
0.00042109952
0.00042550746
0.00043034229
0.00043518995
0.00043952172
0.0004432207
0.00044619895
0.00044847613
0.00045014817
0.00045133684
0.00045214195
0.00045261771
0.00045276694
0.00045255582
0.00045194368
0.00045091284
0.00044952913
0.00044791082
0.00044614339
0.00044446128
0.00044313459
0.00044236157
0.00044229358
0.00044303392
0.00044466955
0.00044724286
0.00045067722
0.00045484437
0.00045907262
0.00046215066
0.00046284777
0.00046068766
0.00045626909
0.00045077305
0.00044482338
0.00043861628
0.00043230452
0.00042599756
0.00041974107
0.00041354135
0.00040737856
0.00040121348
0.00039499923
0.00038868668
0.00038222252
0.00037555519
0.00036863367
0.00036140722
0.0003538265
0.0003458427
0.00033740676
0.00032846997
0.00031898327
0.00030889589
0.00029815626
0.00028671162
0.00027450758
0.00026148986
0.00024760828
0.00023281671
0.00021710076
0.00020048357
0.00018321338
0.00016600212
0.00015211502
0.0001464909
0.00014611714
0.00014739845
0.00015056126
0.00015534686
0.00016169289
0.00016963394
0.00017921634
0.00019050393
0.00020377352
0.00021934666
0.00023724547
0.0002569931
0.00027824077
0.0003009762
0.00032514205
0.00035062869
0.00037720685
0.00040438091
0.00043144689
0.00045809796
0.00048519274
0.00051403108
0.00054536321
0.00057924201
0.00061683567
0.00065932805
0.00070831719
0.00076723619
0.00084107777
0.00093457354
0.0010628567
0.0012175808
0.0013948911
0.0016247969
0.0018563396
0.0022937832
0.0024053615
0.0038280176
0.0027289132
0.01285729
0.011396256
0.11944708
0.1953671
0.43322178
0.23700733
0.31869945
0.17633449
0.28581091
0.17038288
0.12790218
0.024546949
0.017994852
0.002192329
0.0040870723
0.0022532764
0.0021838465
0.0017214707
0.0014831361
0.001259301
0.0010903311
0.00095322514
0.00084555341
0.0007633318
0.00069992131
0.00064804355
0.00060317384
0.00056379007
0.00052792352
0.00049440882
0.00046233045
0.00043101746
0.00039932337
0.00036696421
0.00033530169
0.0003055229
0.00027799687
0.00025283196
0.00023003223
0.00020954412
0.00019135851
0.00017569602
0.00016283421
0.00015245888
0.00014404486
0.00013733425
0.0001322825
0.00012893941
0.00012749153
0.00012820387
0.00013177057
0.00013905025
0.0001558067
0.00018168021
0.00020712937
0.00023019648
0.00024982824
0.00026551723
0.00027631999
0.00028237226
0.00028462913
0.00028391841
0.0002843514
0.00028769644
0.00029171321
0.00029528332
0.00029843961
0.00030088985
0.00030259024
0.00030372222
0.00030461507
0.00030570765
0.00030752361
0.00031066204
0.00031576243
0.00032340399
0.00033385737
0.00034672134
0.00036097544
0.0003758266
0.00038984779
0.00040128968
0.00040858464
0.00041098254
0.00040887909
0.0004033857
0.00039564135
0.00038641401
0.0003778394
0.00037141765
0.00036763406
0.00036620463
0.00036658711
0.00036836764
0.00037130574
0.00037523829
0.00037998519
0.00038527159
0.00039067338
0.00039555806
0.00039976529
0.00040317796
0.00040580497
0.00040774738
0.00040914109
0.00041010144
0.00041069377
0.00041092388
0.00041075523
0.00041014184
0.00040906211
0.0004075888
0.00040585445
0.0004039978
0.00040224793
0.00040092268
0.00040025622
0.00040042995
0.00040157182
0.00040378948
0.00040713617
0.00041154042
0.00041688265
0.00042230503
0.00042634087
0.00042750756
0.00042527448
0.00042047629
0.00041456556
0.00040817882
0.00040156175
0.00039489404
0.00038829968
0.00038182928
0.00037548855
0.00036925425
0.00036308234
0.00035692081
0.00035071596
0.00034441054
0.00033794987
0.00033128087
0.00032435171
0.00031711299
0.00030951706
0.00030151718
0.00029306839
0.00028412695
0.00027464933
0.00026459362
0.00025391989
0.00024259082
0.00023057512
0.00021785456
0.00020442801
0.0001903489
0.00017573968
0.00016100419
0.00014716507
0.00013733732
0.00013489302
0.00013626046
0.00013869559
0.00014259524
0.00014782139
0.00015438795
0.00016236205
0.00017180007
0.0001827869
0.00019556218
0.00021035621
0.00022709023
0.00024529393
0.00026468473
0.00028525132
0.00030693934
0.00032962475
0.00035307467
0.00037684565
0.00040040369
0.00042369794
0.0004476316
0.00047334084
0.00050136387
0.00053179079
0.00056562822
0.0006038783
0.00064791608
0.00070058024
0.00076553363
0.00084636195
0.00095966752
0.0010935282
0.001243329
0.0014330337
0.0016212567
0.0019631568
0.0020663068
0.0031219909
0.0024735652
0.0097973761
0.00979921
0.085461409
0.14244956
0.2980996
0.17947588
0.21904112
0.13382321
0.19930564
0.13073936
0.10008441
0.023704423
0.015400458
0.0021160088
0.0035798988
0.0020470539
0.0019719166
0.0015697792
0.0013558562
0.0011555384
0.0010028198
0.00087858375
0.00078071579
0.00070549174
0.00064720869
0.00059950671
0.00055823943
0.00052207745
0.0004891521
0.00045830731
0.00042873839
0.00039978766
0.00037046141
0.00034050172
0.00031113924
0.00028348919
0.00025791769
0.00023454351
0.00021337319
0.00019435682
0.00017747073
0.00016288653
0.00015084404
0.00014109522
0.00013318704
0.0001268752
0.00012210338
0.00011890151
0.0001174221
0.00011788214
0.00012086915
0.0001270496
0.00014131809
0.00016439674
0.00018843319
0.00021064588
0.00022960324
0.00024441408
0.00025404085
0.00025837438
0.00025854049
0.00025560883
0.00025419291
0.0002561814
0.00025904277
0.00026154255
0.00026368754
0.0002651492
0.00026587116
0.00026604413
0.00026601986
0.00026626716
0.00026734426
0.00026989101
0.00027459813
0.00028211094
0.00029277939
0.00030634043
0.00032166111
0.00033785996
0.00035335072
0.00036614641
0.00037440151
0.00037713273
0.00037464363
0.00036812677
0.00035892296
0.00034810746
0.00033804397
0.00033041774
0.00032575152
0.00032372584
0.00032374455
0.00032534874
0.00032827294
0.00033233377
0.00033734242
0.00034300827
0.00034891059
0.00035432352
0.00035903557
0.00036289438
0.00036589173
0.00036812826
0.00036975023
0.0003708869
0.00037161498
0.00037194457
0.00037183757
0.00037124322
0.00037013573
0.00036859283
0.00036676087
0.00036483226
0.00036303095
0.0003617178
0.00036116351
0.00036158146
0.00036312733
0.00036593193
0.00037005994
0.00037547331
0.00038202282
0.00038864909
0.00039359361
0.00039510161
0.00039261914
0.00038734867
0.00038094083
0.00037405656
0.00036698373
0.0003599262
0.00035301861
0.00034631335
0.00033981316
0.00033348972
0.0003272931
0.00032116564
0.0003150488
0.00030888137
0.00030260578
0.00029616718
0.00028951311
0.00028259471
0.00027536608
0.00026778362
0.00025980697
0.00025139875
0.00024252385
0.00023315137
0.00022325573
0.0002128184
0.00020183287
0.00019031421
0.00017830702
0.00016592863
0.00015339112
0.00014121487
0.00013057214
0.00012418755
0.00012426701
0.00012705669
0.00013045407
0.00013496211
0.00014053664
0.00014724867
0.00015518895
0.0001644203
0.00017503661
0.00018723544
0.00020116262
0.00021665747
0.00023326746
0.00025075938
0.00026913202
0.00028833435
0.00030823677
0.00032861555
0.00034909188
0.00036929472
0.00038938332
0.00041027692
0.00043295435
0.00045777413
0.00048484363
0.00051501545
0.00054911687
0.00058829469
0.00063480734
0.00069109378
0.0007598043
0.00085877836
0.00097287792
0.0010970121
0.0012499738
0.0013987566
0.0016583459
0.0017483633
0.0025127734
0.0021810053
0.0073833563
0.0082446482
0.060875541
0.10403732
0.2073638
0.13670382
0.15224699
0.10192021
0.14050664
0.10087584
0.079074527
0.022690462
0.013296918
0.0020269461
0.0031198877
0.0018504847
0.0017722734
0.0014249983
0.0012340535
0.0010557551
0.00091842654
0.00080644241
0.0007179856
0.00064953322
0.00059622886
0.00055258376
0.00051481606
0.00048178672
0.00045172242
0.00042346599
0.0003963223
0.00036964388
0.0003425823
0.00031491187
0.00028774472
0.00026212868
0.00023842668
0.0002167674
0.00019715978
0.00017955726
0.00016392307
0.00015038389
0.00013914367
0.0001300122
0.00012260357
0.00011668943
0.00011220467
0.00010916182
0.00010768258
0.00010793969
0.00011042493
0.00011563041
0.00012769194
0.00014819054
0.00017081013
0.00019220812
0.00021058312
0.00022463832
0.00023322391
0.00023594872
0.00023410949
0.00022907568
0.00022593986
0.00022665983
0.00022844203
0.00022995168
0.00023116796
0.00023173222
0.00023157598
0.00023089499
0.00023005584
0.00022954642
0.0002299458
0.00023191871
0.00023619177
0.00024346765
0.00025418503
0.00026826397
0.000284508
0.00030196803
0.00031892332
0.00033316511
0.00034256316
0.00034586209
0.00034321157
0.00033583734
0.00032528077
0.00031298107
0.00030151638
0.00029274255
0.00028720952
0.00028456632
0.00028417319
0.00028553364
0.00028836019
0.00029245489
0.00029762434
0.00030357128
0.00030988964
0.00031578023
0.00032097322
0.00032527515
0.00032865395
0.00033120323
0.00033307456
0.0003344085
0.00033529263
0.00033574262
0.00033572016
0.00033517059
0.00033406388
0.00033248052
0.00033057934
0.0003286041
0.00032677656
0.000325494
0.00032506322
0.00032573131
0.0003276847
0.00033107987
0.00033599291
0.00034245929
0.00035023989
0.00035805821
0.00036382213
0.00036548804
0.00036255171
0.00035671575
0.00034973272
0.00034229943
0.00033473709
0.00032726946
0.00032003674
0.00031308939
0.00030642443
0.00030000667
0.00029377936
0.00028767869
0.00028164113
0.00027560174
0.0002695004
0.00026328097
0.00025689098
0.00025028275
0.00024341294
0.00023624191