/*--------------------------------*- C++ -*----------------------------------*\
| =========                 |                                                 |
| \\      /  F ield         | OpenFOAM: The Open Source CFD Toolbox           |
|  \\    /   O peration     | Version:  2.4.0                                 |
|   \\  /    A nd           | Web:      www.OpenFOAM.org                      |
|    \\/     M anipulation  |                                                 |
\*---------------------------------------------------------------------------*/
FoamFile
{
    version     2.0;
    format      ascii;
    class       volScalarField;
    location    "600";
    object      k_0;
}
// * * * * * * * * * * * * * * * * * * * * * * * * * * * * * * * * * * * * * //

dimensions      [0 2 -2 0 0 0 0];

internalField   nonuniform List<scalar> 
78300
(
7.0740896e-07
7.9981343e-07
1.0392206e-06
1.0012202e-06
7.937976e-07
3.7856006e-07
7.8808255e-08
9.0826712e-09
1.1002423e-07
1.5322912e-07
1.2508576e-07
9.1012094e-08
5.3244996e-08
3.7747985e-08
3.4094654e-08
3.2737225e-08
2.9131051e-08
2.702869e-08
2.4499247e-08
2.1146865e-08
1.785569e-08
1.477428e-08
1.2488166e-08
1.0777898e-08
9.6176573e-09
8.7989492e-09
8.4271082e-09
8.1540712e-09
8.2921361e-09
8.584601e-09
9.2714124e-09
1.0317278e-08
1.1610773e-08
1.3270155e-08
1.5372132e-08
1.7807013e-08
2.0346003e-08
2.2994651e-08
2.6020379e-08
2.8446247e-08
3.0192584e-08
3.2326735e-08
3.4572398e-08
3.6658855e-08
3.7894596e-08
3.8680715e-08
3.8954074e-08
3.8586231e-08
3.8163875e-08
3.7589906e-08
3.6722179e-08
3.5926575e-08
3.4650455e-08
3.2735626e-08
3.0957899e-08
2.8497543e-08
2.6252894e-08
2.3484508e-08
2.1412644e-08
1.8895472e-08
1.8417857e-08
1.7679239e-08
2.4772131e-08
4.3726759e-08
6.0134116e-08
7.8027058e-08
9.5635941e-08
1.1339371e-07
1.3036822e-07
1.4694559e-07
1.6274763e-07
1.7829371e-07
1.9254026e-07
2.0647243e-07
2.1947076e-07
2.319447e-07
2.4380133e-07
2.5502262e-07
2.6567561e-07
2.757619e-07
2.8528258e-07
2.9428468e-07
3.0274362e-07
3.10666e-07
3.1808837e-07
3.2500325e-07
3.3143585e-07
3.3736934e-07
3.4283391e-07
3.4781545e-07
3.5234504e-07
3.5641149e-07
3.6003046e-07
3.6321757e-07
3.6597077e-07
3.6832207e-07
3.7025824e-07
3.7180475e-07
3.729648e-07
3.7374429e-07
3.7417275e-07
3.7421494e-07
3.7392341e-07
3.7327561e-07
3.7228463e-07
3.7097637e-07
3.6933903e-07
3.6741831e-07
3.6519908e-07
3.6269952e-07
3.59931e-07
3.5690908e-07
3.536316e-07
3.501254e-07
3.4639323e-07
3.4243695e-07
3.3832362e-07
3.3396381e-07
3.2943628e-07
3.2475396e-07
3.1988961e-07
3.1489826e-07
3.0976802e-07
3.04525e-07
2.9915993e-07
2.9370175e-07
2.8815213e-07
2.8252853e-07
2.7682796e-07
2.7107709e-07
2.6527536e-07
2.594339e-07
2.5356347e-07
2.4766914e-07
2.41761e-07
2.3584956e-07
2.2993979e-07
2.2404428e-07
2.1816464e-07
2.1231284e-07
2.0649089e-07
2.0070879e-07
1.9496914e-07
1.8927802e-07
1.836528e-07
1.7807099e-07
1.7254692e-07
1.6710307e-07
1.6171269e-07
1.5642267e-07
1.5120079e-07
1.460664e-07
1.4101444e-07
1.3605629e-07
1.3117948e-07
1.2641203e-07
1.2171217e-07
1.17134e-07
1.1266532e-07
1.0816007e-07
1.0404672e-07
9.9422429e-08
9.4465845e-08
9.0823506e-08
8.6982297e-08
8.3579464e-08
8.0014404e-08
7.6606962e-08
7.3226362e-08
6.9955438e-08
6.6748512e-08
6.366805e-08
6.0636689e-08
5.7754238e-08
5.4921422e-08
5.2214415e-08
4.9591197e-08
4.7079e-08
4.464618e-08
4.2317139e-08
4.0067044e-08
3.7918277e-08
3.5846404e-08
3.3877257e-08
3.1988694e-08
3.0200273e-08
2.845968e-08
2.683351e-08
2.5274919e-08
2.379613e-08
2.2407265e-08
2.109329e-08
1.9837622e-08
1.8682435e-08
1.7553279e-08
1.6531755e-08
1.5613933e-08
1.4737579e-08
1.3968959e-08
1.3253903e-08
1.2636472e-08
1.2144391e-08
1.1661542e-08
1.1322344e-08
1.1067196e-08
1.0980992e-08
1.0830068e-08
1.0577574e-08
1.0668047e-08
1.0738894e-08
1.1061097e-08
1.1062737e-08
1.1116597e-08
1.0822465e-08
1.0221741e-08
1.0844788e-08
8.7073478e-09
7.7790782e-09
8.4190724e-09
9.2070222e-09
5.4818497e-09
7.0957113e-09
4.2097594e-09
1.4546265e-08
8.542082e-08
1.6407342e-07
2.1541542e-07
2.5483796e-07
2.2228277e-07
4.2972926e-07
9.0607566e-08
2.7040639e-08
1.0335217e-07
6.6537399e-08
4.4467875e-07
4.8271566e-07
1.2766288e-06
4.860213e-07
5.3480001e-07
6.7992553e-07
4.9833604e-07
1.3958358e-07
9.2725477e-08
1.7111466e-06
1.5629449e-06
9.6169873e-06
5.1372492e-06
2.6921398e-06
2.8580861e-06
2.4482096e-06
0.0003683001
2.9809801e-06
1.770636e-05
4.3852838e-06
4.3161946e-06
4.2852081e-05
8.8736542e-05
9.3378786e-06
6.7657348e-06
7.2668493e-06
8.3782788e-06
8.5378577e-06
7.4963828e-06
5.5460423e-06
4.0089469e-06
2.6995986e-06
1.665651e-06
1.0335164e-06
8.7669182e-07
5.1134935e-07
2.699553e-07
2.9048527e-07
3.2182403e-07
3.0044089e-07
2.4175741e-07
1.4587646e-07
6.8059974e-08
3.1147051e-08
2.929153e-08
2.7543048e-08
2.0799945e-08
1.5028364e-08
8.757605e-09
6.1042837e-09
5.4877123e-09
5.2634793e-09
4.7126506e-09
4.3875988e-09
4.0056284e-09
3.5063126e-09
3.0151322e-09
2.5561725e-09
2.2164999e-09
1.9664056e-09
1.80495e-09
1.7003534e-09
1.6674954e-09
1.6550179e-09
1.7098196e-09
1.7950742e-09
1.9468403e-09
2.1622644e-09
2.4251564e-09
2.7543176e-09
3.1631288e-09
3.6363406e-09
4.1385366e-09
4.6697521e-09
5.2707537e-09
5.7979864e-09
6.2398045e-09
6.7541932e-09
7.3086909e-09
7.8591499e-09
8.2976639e-09
8.6828584e-09
9.0035274e-09
9.2369995e-09
9.475777e-09
9.7128913e-09
9.9198799e-09
1.014604e-08
1.0304504e-08
1.0356767e-08
1.0412601e-08
1.0334019e-08
1.0239288e-08
1.000352e-08
9.8079245e-09
9.4809378e-09
9.4397013e-09
9.4010818e-09
1.0834293e-08
1.48318e-08
1.8819975e-08
2.2961529e-08
2.704175e-08
3.1114624e-08
3.5045066e-08
3.8891989e-08
4.2597532e-08
4.6237488e-08
4.9660938e-08
5.3012615e-08
5.6208227e-08
5.9306521e-08
6.2297116e-08
6.5177459e-08
6.7958433e-08
7.0640978e-08
7.322532e-08
7.5718762e-08
7.8117835e-08
8.0422852e-08
8.2638803e-08
8.4764308e-08
8.6802785e-08
8.87512e-08
9.0613425e-08
9.2386908e-08
9.407552e-08
9.5676932e-08
9.7192886e-08
9.8625097e-08
9.9972908e-08
1.0124063e-07
1.0242616e-07
1.0353301e-07
1.0456154e-07
1.055129e-07
1.0639109e-07
1.0719e-07
1.0791621e-07
1.0856582e-07
1.0914073e-07
1.0964449e-07
1.1007513e-07
1.1043891e-07
1.1073377e-07
1.1096268e-07
1.1112736e-07
1.1123003e-07
1.1127066e-07
1.1125334e-07
1.11178e-07
1.1104459e-07
1.1086257e-07
1.1062051e-07
1.1033019e-07
1.0999234e-07
1.0960358e-07
1.091728e-07
1.0869804e-07
1.0818322e-07
1.0762781e-07
1.070365e-07
1.0640919e-07
1.0574848e-07
1.0505479e-07
1.0433279e-07
1.0358247e-07
1.0280566e-07
1.0200455e-07
1.0118046e-07
1.0033475e-07
9.9468786e-08
9.8584048e-08
9.7683275e-08
9.6767038e-08
9.5837488e-08
9.4895473e-08
9.3943187e-08
9.2981663e-08
9.2012609e-08
9.1038954e-08
9.0057974e-08
8.9069816e-08
8.8076858e-08
8.7078565e-08
8.6082622e-08
8.5083265e-08
8.4083581e-08
8.3084229e-08
8.2087735e-08
8.1092707e-08
8.0104303e-08
7.9117826e-08
7.8143143e-08
7.7178131e-08
7.6199416e-08
7.5255408e-08
7.4156408e-08
7.2846324e-08
7.1719008e-08
7.0711524e-08
6.983395e-08
6.893307e-08
6.8044661e-08
6.7145203e-08
6.6245625e-08
6.5342272e-08
6.4445688e-08
6.3544247e-08
6.2653941e-08
6.1763447e-08
6.088018e-08
6.000081e-08
5.9131732e-08
5.8268564e-08
5.7408684e-08
5.6547569e-08
5.5692949e-08
5.4839318e-08
5.3991374e-08
5.3144533e-08
5.2303069e-08
5.1454956e-08
5.0607505e-08
4.9753522e-08
4.8894061e-08
4.8039574e-08
4.7170453e-08
4.6273217e-08
4.5365391e-08
4.4431949e-08
4.3481119e-08
4.2514519e-08
4.1512109e-08
4.0475164e-08
3.9389039e-08
3.8247078e-08
3.7079282e-08
3.5842356e-08
3.4556268e-08
3.3205916e-08
3.1833423e-08
3.0352338e-08
2.8790013e-08
2.8090766e-08
2.8116287e-08
2.8596651e-08
2.9229366e-08
3.0022206e-08
3.0864025e-08
3.1813002e-08
3.3107409e-08
3.372715e-08
3.3897565e-08
3.583204e-08
3.6512281e-08
3.4673721e-08
3.644063e-08
3.7259953e-08
4.6494327e-08
4.3905628e-08
5.6023657e-08
8.5687338e-08
1.6619668e-07
1.2086603e-07
1.1832901e-07
9.0707184e-08
8.5968552e-08
7.6141228e-08
7.5970399e-08
1.8548833e-07
1.25662e-07
2.0554308e-07
1.3679075e-07
1.5182838e-07
1.4764548e-07
8.8699053e-08
7.748974e-08
1.2521905e-07
3.9419442e-07
3.6718539e-07
1.3931694e-06
8.6783519e-07
4.1317113e-07
5.5024952e-07
8.269682e-07
5.7786568e-05
1.2900527e-06
3.3295469e-06
1.0343904e-06
9.2039713e-07
7.0751006e-06
1.4683395e-05
1.4798618e-06
1.1113846e-06
1.2528209e-06
1.5024845e-06
1.55774e-06
1.376472e-06
1.0411577e-06
7.7779066e-07
5.6218178e-07
3.9710322e-07
3.0193694e-07
2.7678886e-07
2.2689308e-07
1.2428884e-06
1.2974629e-06
1.2794333e-06
1.1624001e-06
9.4752531e-07
6.7531726e-07
4.1623124e-07
2.1865729e-07
1.0097478e-07
4.3380226e-08
2.1766889e-08
1.3178127e-08
7.8668651e-09
5.6586083e-09
4.9243033e-09
4.6720173e-09
4.3775686e-09
4.1679124e-09
4.0009017e-09
3.8026546e-09
3.607928e-09
3.4310472e-09
3.310492e-09
3.2515464e-09
3.2683466e-09
3.3498967e-09
3.4938414e-09
3.6845714e-09
3.9422214e-09
4.2649251e-09
4.6679011e-09
5.161424e-09
5.7494271e-09
6.4452081e-09
7.2646063e-09
8.2105472e-09
9.2618209e-09
1.0410257e-08
1.1680188e-08
1.3022141e-08
1.4447356e-08
1.6022369e-08
1.7751955e-08
1.9618973e-08
2.1552736e-08
2.3557044e-08
2.561795e-08
2.7707479e-08
2.9892255e-08
3.2219128e-08
3.4622922e-08
3.7093362e-08
3.9570898e-08
4.1941186e-08
4.4178139e-08
4.6144155e-08
4.7770274e-08
4.8903753e-08
4.9613847e-08
4.982211e-08
5.0014925e-08
5.0494373e-08
5.3652694e-08
6.3309791e-08
7.5528243e-08
8.7337979e-08
9.8993308e-08
1.1044617e-07
1.2166746e-07
1.3267273e-07
1.4346229e-07
1.5402753e-07
1.6435151e-07
1.7447653e-07
1.8442454e-07
1.9420179e-07
2.0382827e-07
2.1330576e-07
2.2264315e-07
2.318456e-07
2.4091385e-07
2.4985276e-07
2.5866246e-07
2.6733833e-07
2.7587897e-07
2.8428225e-07
2.9254711e-07
3.0066857e-07
3.0864377e-07
3.1646859e-07
3.2413975e-07
3.3165134e-07
3.3899999e-07
3.4618244e-07
3.5319558e-07
3.600384e-07
3.667082e-07
3.7320521e-07
3.7952868e-07
3.8567968e-07
3.916579e-07
3.9745488e-07
4.0306596e-07
4.0848452e-07
4.1371106e-07
4.1874531e-07
4.2358457e-07
4.2822804e-07
4.3267502e-07
4.3692942e-07
4.409919e-07
4.4486265e-07
4.4854319e-07
4.5203582e-07
4.5533776e-07
4.5844577e-07
4.6136161e-07
4.6409139e-07
4.6664279e-07
4.6900665e-07
4.7118524e-07
4.7318827e-07
4.7501349e-07
4.7666268e-07
4.7814018e-07
4.794518e-07
4.8059475e-07
4.8157022e-07
4.8238352e-07
4.8304187e-07
4.8354549e-07
4.8389644e-07
4.8409943e-07
4.8415908e-07
4.8407495e-07
4.8384631e-07
4.8347864e-07
4.8297885e-07
4.8234941e-07
4.8159376e-07
4.8071606e-07
4.7972177e-07
4.7861606e-07
4.7740483e-07
4.7609254e-07
4.7468135e-07
4.7315899e-07
4.7151982e-07
4.6978566e-07
4.6796577e-07
4.6605021e-07
4.6404181e-07
4.6195052e-07
4.5978315e-07
4.5754222e-07
4.5523694e-07
4.5287624e-07
4.5047495e-07
4.4803494e-07
4.4552633e-07
4.4286033e-07
4.3959982e-07
4.3512872e-07
4.3064795e-07
4.2726005e-07
4.2435961e-07
4.2144938e-07
4.1847087e-07
4.1538262e-07
4.1218136e-07
4.0888692e-07
4.0551096e-07
4.0204917e-07
3.9851591e-07
3.9492996e-07
3.912666e-07
3.8754487e-07
3.8378364e-07
3.7998359e-07
3.7610055e-07
3.72127e-07
3.6809625e-07
3.6399326e-07
3.5982571e-07
3.55583e-07
3.51276e-07
3.4687117e-07
3.4235251e-07
3.3771648e-07
3.3295796e-07
3.281427e-07
3.2314363e-07
3.1787915e-07
3.1243404e-07
3.0677228e-07
3.0087542e-07
2.9475423e-07
2.8832799e-07
2.8153876e-07
2.7433595e-07
2.6662409e-07
2.5859248e-07
2.5004831e-07
2.4099318e-07
2.313835e-07
2.2143684e-07
2.107676e-07
1.9961901e-07
1.9441635e-07
1.9453235e-07
1.9771226e-07
2.0233915e-07
2.080794e-07
2.1455059e-07
2.2209396e-07
2.3089383e-07
2.3762395e-07
2.3977533e-07
2.5320798e-07
2.5738147e-07
2.4755941e-07
2.5860764e-07
2.6760957e-07
3.2505796e-07
2.3074846e-07
2.4050071e-07
3.9338424e-07
9.5603859e-07
6.3462071e-07
3.4761426e-07
5.4619566e-07
5.9728953e-07
4.4397618e-07
4.8020973e-07
9.0046752e-07
4.5529978e-07
2.1268011e-07
5.0675143e-07
5.7940864e-07
4.1436737e-07
1.1403517e-07
4.5328856e-07
7.8988746e-07
1.1149906e-06
6.3704249e-07
6.6798008e-07
3.8334211e-07
2.1392848e-07
1.103389e-06
2.7477544e-06
2.2432756e-05
8.8909492e-06
5.0375855e-06
2.7418127e-06
2.1361918e-06
3.1381478e-06
5.552185e-06
1.2405245e-06
1.1403963e-06
1.6465619e-06
2.3131309e-06
2.5728444e-06
2.3222254e-06
1.8814826e-06
1.5408572e-06
1.3153963e-06
1.1806238e-06
1.1376634e-06
1.1176612e-06
1.1304674e-06
4.5605816e-06
4.7515532e-06
4.6487144e-06
4.2150029e-06
3.4391431e-06
2.4788254e-06
1.551077e-06
8.2030973e-07
3.6387717e-07
1.4102032e-07
6.3170396e-08
3.5315934e-08
2.137473e-08
1.578276e-08
1.3517373e-08
1.2758343e-08
1.2182614e-08
1.1700791e-08
1.1448402e-08
1.118817e-08
1.093543e-08
1.0720699e-08
1.0602677e-08
1.0631599e-08
1.086242e-08
1.128699e-08
1.1880996e-08
1.2636018e-08
1.3581521e-08
1.4749147e-08
1.6160823e-08
1.7858302e-08
1.987508e-08
2.2242839e-08
2.5009374e-08
2.820214e-08
3.1775874e-08
3.5697494e-08
4.0020285e-08
4.4697854e-08
4.9789965e-08
5.5393316e-08
6.1552435e-08
6.825276e-08
7.5331168e-08
8.2739342e-08
9.0435266e-08
9.8334282e-08
1.0659818e-07
1.154164e-07
1.2456477e-07
1.3395485e-07
1.4344342e-07
1.5262887e-07
1.6128806e-07
1.6903301e-07
1.7547181e-07
1.8013692e-07
1.8311022e-07
1.8426349e-07
1.8506067e-07
1.8696857e-07
1.9777672e-07
2.3123068e-07
2.7467803e-07
3.1638299e-07
3.5755132e-07
3.9793799e-07
4.3757193e-07
4.764474e-07
5.1463406e-07
5.5201189e-07
5.8867345e-07
6.2463547e-07
6.6006972e-07
6.9493919e-07
7.2933275e-07
7.6326036e-07
7.9674494e-07
8.2980564e-07
8.6244514e-07
8.9467492e-07
9.2649899e-07
9.5789896e-07
9.8886424e-07
1.0193881e-06
1.0494628e-06
1.0790719e-06
1.1082006e-06
1.1368353e-06
1.1649593e-06
1.1925521e-06
1.2195988e-06
1.2460848e-06
1.2719986e-06
1.2973321e-06
1.3220766e-06
1.3462295e-06
1.3697875e-06
1.3927535e-06
1.4151225e-06
1.4368667e-06
1.457962e-06
1.4783868e-06
1.4981412e-06
1.5172205e-06
1.535616e-06
1.5533184e-06
1.5703267e-06
1.5866536e-06
1.6022994e-06
1.6172628e-06
1.6315496e-06
1.6451646e-06
1.6580969e-06
1.670334e-06
1.6818733e-06
1.6927503e-06
1.7029829e-06
1.7125341e-06
1.7214165e-06
1.729659e-06
1.7372548e-06
1.7442066e-06
1.7505317e-06
1.7562482e-06
1.7613453e-06
1.7658249e-06
1.7697071e-06
1.7730153e-06
1.7757504e-06
1.7779184e-06
1.7795355e-06
1.7806182e-06
1.7811635e-06
1.7811672e-06
1.780649e-06
1.779633e-06
1.7781281e-06
1.7761456e-06
1.7737007e-06
1.7708125e-06
1.7675002e-06
1.7637847e-06
1.7596806e-06
1.755199e-06
1.7502923e-06
1.7449358e-06
1.7392149e-06
1.733158e-06
1.7267321e-06
1.7199452e-06
1.7128352e-06
1.705426e-06
1.6977289e-06
1.6897746e-06
1.6816026e-06
1.67326e-06
1.6647578e-06
1.6560001e-06
1.6465917e-06
1.6350302e-06
1.6189755e-06
1.6026997e-06
1.5905531e-06
1.5801668e-06
1.5697655e-06
1.5590863e-06
1.5479912e-06
1.5364564e-06
1.5245628e-06
1.512345e-06
1.4997982e-06
1.4869616e-06
1.4739201e-06
1.4605696e-06
1.4469879e-06
1.4332414e-06
1.4193379e-06
1.4051078e-06
1.3905266e-06
1.375716e-06
1.3606231e-06
1.3452727e-06
1.3296286e-06
1.3137286e-06
1.2974547e-06
1.2807367e-06
1.2635686e-06
1.2459293e-06
1.2280639e-06
1.2094981e-06
1.1899281e-06
1.169666e-06
1.1485864e-06
1.1266101e-06
1.1037762e-06
1.0797916e-06
1.0544299e-06
1.0275092e-06
9.9866407e-07
9.6860064e-07
9.3661386e-07
9.0268739e-07
8.6666845e-07
8.2936066e-07
7.8938961e-07
7.4771442e-07
7.2825496e-07
7.2868664e-07
7.4058625e-07
7.5796777e-07
7.7952363e-07
8.0387864e-07
8.3230656e-07
8.6524992e-07
8.9079188e-07
8.990616e-07
9.493835e-07
9.6476658e-07
9.2844689e-07
9.6982526e-07
1.0045626e-06
1.2173715e-06
8.5366914e-07
8.7784154e-07
1.452551e-06
3.5734059e-06
2.3316424e-06
1.2172431e-06
2.0336623e-06
2.2348232e-06
1.6485279e-06
1.7973206e-06
3.3119033e-06
1.6472511e-06
6.2315472e-07
1.8374646e-06
2.102742e-06
1.4643887e-06
3.4654829e-07
1.6953484e-06
2.9423823e-06
3.8966664e-06
2.0256645e-06
1.1323483e-06
6.085937e-07
3.5502864e-07
3.7728353e-06
9.7384378e-06
2.4937165e-05
3.2960319e-05
1.5562547e-05
9.4586516e-06
7.332043e-06
4.0154323e-06
5.0020806e-06
3.2957979e-06
3.2942109e-06
5.1089231e-06
7.4391332e-06
8.4010972e-06
7.6132826e-06
6.2479327e-06
5.1931636e-06
4.536276e-06
4.1845959e-06
4.1159848e-06
4.0651364e-06
4.1675937e-06
1.2156923e-05
1.2662603e-05
1.2377148e-05
1.1219515e-05
9.1557113e-06
6.6085453e-06
4.1435818e-06
2.1947388e-06
9.7055474e-07
3.7220067e-07
1.638836e-07
9.0155146e-08
5.4697744e-08
4.0711566e-08
3.4771924e-08
3.2783991e-08
3.1392288e-08
3.0188376e-08
2.9618098e-08
2.905639e-08
2.8512842e-08
2.8062611e-08
2.7838238e-08
2.7981823e-08
2.8641038e-08
2.9804834e-08
3.1404264e-08
3.3429853e-08
3.5946961e-08
3.9051215e-08
4.2791459e-08
4.7279727e-08
5.2611118e-08
5.886481e-08
6.6165586e-08
7.4592422e-08
8.4035172e-08
9.4403429e-08
1.0582922e-07
1.1822668e-07
1.3176028e-07
1.4664597e-07
1.6301011e-07
1.8083059e-07
1.9970048e-07
2.194718e-07
2.4003576e-07
2.6117016e-07
2.8327857e-07
3.0687273e-07
3.3136303e-07
3.5650006e-07
3.8192244e-07
4.0656594e-07
4.2979709e-07
4.5061487e-07
4.6793475e-07
4.8053403e-07
4.885803e-07
4.917782e-07
4.939405e-07
4.990773e-07
5.2765119e-07
6.1621585e-07
7.316135e-07
8.4232073e-07
9.5160652e-07
1.0587955e-06
1.1640076e-06
1.2672061e-06
1.3685981e-06
1.4678371e-06
1.5652141e-06
1.6607358e-06
1.7548853e-06
1.847546e-06
1.93896e-06
2.0291548e-06
2.1181884e-06
2.206112e-06
2.2929329e-06
2.3786797e-06
2.4633643e-06
2.5469369e-06
2.6293679e-06
2.7106396e-06
2.7907306e-06
2.8695976e-06
2.9471994e-06
3.0235009e-06
3.098456e-06
3.1720102e-06
3.2441231e-06
3.3147555e-06
3.3838768e-06
3.4514634e-06
3.5174931e-06
3.5819578e-06
3.6448486e-06
3.7061729e-06
3.7659166e-06
3.8240023e-06
3.8803677e-06
3.9349562e-06
3.9877674e-06
4.0387877e-06
4.0879946e-06
4.1353611e-06
4.1808856e-06
4.2246008e-06
4.2665078e-06
4.3066016e-06
4.3448979e-06
4.3814087e-06
4.4161048e-06
4.4489518e-06
4.4799423e-06
4.5091736e-06
4.5366901e-06
4.5623926e-06
4.5863152e-06
4.6085341e-06
4.6290311e-06
4.6478125e-06
4.6649241e-06
4.6804141e-06
4.6942533e-06
4.7064459e-06
4.7170457e-06
4.7261143e-06
4.7336542e-06
4.7396805e-06
4.7442364e-06
4.7473659e-06
4.7490604e-06
4.7493083e-06
4.748162e-06
4.7456854e-06
4.7419022e-06
4.7368419e-06
4.7305456e-06
4.7230632e-06
4.7144462e-06
4.7047502e-06
4.6940137e-06
4.6822666e-06
4.6693818e-06
4.655293e-06
4.6402281e-06
4.6242615e-06
4.6073065e-06
4.5893838e-06
4.5705944e-06
4.5510022e-06
4.5306372e-06
4.5095812e-06
4.4879409e-06
4.4658402e-06
4.4433082e-06
4.4200914e-06
4.3951132e-06
4.3644052e-06
4.3217276e-06
4.2784152e-06
4.2461259e-06
4.2185132e-06
4.1908676e-06
4.1624746e-06
4.1329696e-06
4.1022864e-06
4.0706422e-06
4.0381272e-06
4.004731e-06
3.9705551e-06
3.9358297e-06
3.9002731e-06
3.8640957e-06
3.8274731e-06
3.7904275e-06
3.7525053e-06
3.7136425e-06
3.6741623e-06
3.6339246e-06
3.5929946e-06
3.5512768e-06
3.508871e-06
3.4654645e-06
3.4208665e-06
3.3750636e-06
3.3279991e-06
3.280326e-06
3.230779e-06
3.1785476e-06
3.1244632e-06
3.0681941e-06
3.0095248e-06
2.9485597e-06
2.8845188e-06
2.8167951e-06
2.7449058e-06
2.6678712e-06
2.5875771e-06
2.5021452e-06
2.4115238e-06
2.3153085e-06
2.2156441e-06
2.1089803e-06
1.9980072e-06
1.9462471e-06
1.9474166e-06
1.9792415e-06
2.0257398e-06
2.0834048e-06
2.1485643e-06
2.2246546e-06
2.3126992e-06
2.3809522e-06
2.4032826e-06
2.5377616e-06
2.5785241e-06
2.4817327e-06
2.5928948e-06
2.6866471e-06
3.2508352e-06
2.2783445e-06
2.3372824e-06
3.9055162e-06
9.5454465e-06
6.1905254e-06
3.2191229e-06
5.4333269e-06
5.9608538e-06
4.3945958e-06
4.8089056e-06
8.8141112e-06
4.3709322e-06
1.6216706e-06
4.8970305e-06
5.5930037e-06
3.8770275e-06
9.0401063e-07
4.5389407e-06
7.8491231e-06
1.016499e-05
5.3096346e-06
2.5607527e-06
1.4105665e-06
8.1350321e-07
1.0104078e-05
2.5994201e-05
4.93573e-05
8.6770365e-05
3.9790243e-05
2.4856947e-05
1.9283846e-05
8.2873941e-06
8.8821267e-06
8.3853991e-06
8.5227369e-06
1.3334134e-05
1.9489224e-05
2.2067714e-05
2.0015633e-05
1.6463986e-05
1.3707887e-05
1.2001557e-05
1.1107223e-05
1.0950767e-05
1.082384e-05
1.111612e-05
2.6572891e-05
2.7675063e-05
2.7044265e-05
2.4513266e-05
2.0006486e-05
1.4448506e-05
9.066969e-06
4.8079509e-06
2.1273286e-06
8.150612e-07
3.571076e-07
1.9537671e-07
1.1857572e-07
8.8505317e-08
7.5559801e-08
7.1208042e-08
6.8223634e-08
6.5622587e-08
6.441551e-08
6.3241263e-08
6.2105037e-08
6.1168408e-08
6.0710713e-08
6.1045084e-08
6.249597e-08
6.5045968e-08
6.8543109e-08
7.297039e-08
7.8464806e-08
8.5240043e-08
9.339902e-08
1.0318654e-07
1.1481305e-07
1.2844932e-07
1.4436728e-07
1.6274396e-07
1.8334547e-07
2.0597142e-07
2.3090562e-07
2.5797617e-07
2.8754287e-07
3.2005927e-07
3.5580874e-07
3.9475331e-07
4.3601556e-07
4.7926272e-07
5.242589e-07
5.7051604e-07
6.188964e-07
6.7052556e-07
7.2412632e-07
7.7914688e-07
8.3480444e-07
8.8877716e-07
9.3966149e-07
9.8528203e-07
1.0232509e-06
1.0509015e-06
1.068575e-06
1.0756513e-06
1.0804276e-06
1.0917099e-06
1.1540708e-06
1.3473212e-06
1.5993488e-06
1.8411548e-06
2.0798553e-06
2.3139613e-06
2.5437613e-06
2.7691603e-06
2.9906197e-06
3.2073725e-06
3.4200728e-06
3.6287227e-06
3.8343861e-06
4.0367998e-06
4.2364968e-06
4.4335374e-06
4.6280468e-06
4.8201372e-06
5.0098243e-06
5.1971704e-06
5.3822015e-06
5.5648084e-06
5.744926e-06
5.922516e-06
6.0975313e-06
6.2698777e-06
6.4394644e-06
6.6062149e-06
6.7700283e-06
6.9307854e-06
7.0883978e-06
7.2427799e-06
7.3938646e-06
7.5416001e-06
7.6859379e-06
7.8268602e-06
7.9643473e-06
8.0984153e-06
8.2290334e-06
8.3560196e-06
8.4792505e-06
8.5986022e-06
8.7140739e-06
8.8256352e-06
8.933237e-06
9.0368197e-06
9.1363806e-06
9.2319913e-06
9.3236531e-06
9.4113551e-06
9.4951315e-06
9.5750072e-06
9.6509194e-06
9.722792e-06
9.7906101e-06
9.854588e-06
9.9148202e-06
9.9710875e-06
1.0023466e-05
1.0072124e-05
1.0117021e-05
1.0158168e-05
1.0195667e-05
1.0229622e-05
1.0259971e-05
1.0286722e-05
1.0309992e-05
1.0329915e-05
1.0346498e-05
1.0359772e-05
1.0369833e-05
1.0376776e-05
1.0380582e-05
1.0381225e-05
1.0378822e-05
1.0373509e-05
1.036534e-05
1.0354379e-05
1.0340716e-05
1.0324459e-05
1.0305721e-05
1.0284623e-05
1.0261249e-05
1.0235664e-05
1.0207593e-05
1.0176888e-05
1.0144048e-05
1.0109234e-05
1.0072258e-05
1.0033166e-05
9.9921776e-06
9.9494318e-06
9.9049951e-06
9.8590468e-06
9.8118195e-06
9.7635837e-06
9.7144004e-06
9.6637133e-06
9.6091454e-06
9.5420608e-06
9.4488844e-06
9.3543158e-06
9.283797e-06
9.2234742e-06
9.1630864e-06
9.1010626e-06
9.0366089e-06
8.9695804e-06
8.9004494e-06
8.8294135e-06
8.7564497e-06
8.6817788e-06
8.605906e-06
8.5282118e-06
8.4491599e-06
8.3691302e-06
8.2881744e-06
8.2052999e-06
8.1203684e-06
8.0340846e-06
7.946143e-06
7.8566844e-06
7.7655022e-06
7.6728133e-06
7.5779357e-06
7.48045e-06
7.380329e-06
7.2774494e-06
7.1732355e-06
7.0649228e-06
6.9507416e-06
6.8325076e-06
6.7094973e-06
6.5812359e-06
6.4479525e-06
6.3079418e-06
6.1598791e-06
6.0027109e-06
5.8342911e-06
5.6587425e-06
5.4719619e-06
5.2738284e-06
5.063461e-06
4.8455503e-06
4.6125847e-06
4.3707388e-06
4.2580866e-06
4.2606869e-06
4.3303742e-06
4.4321834e-06
4.5584484e-06
4.7011028e-06
4.8677682e-06
5.0603876e-06
5.2094846e-06
5.258793e-06
5.5529981e-06
5.641603e-06
5.430236e-06
5.6748915e-06
5.8800112e-06
7.1048155e-06
4.9760402e-06
5.1153746e-06
8.6199866e-06
2.0860321e-05
1.3456715e-05
7.0130499e-06
1.1886226e-05
1.3009561e-05
9.5941504e-06
1.0530962e-05
1.9237515e-05
9.4769645e-06
3.5372023e-06
1.0706892e-05
1.2201649e-05
8.4367883e-06
1.9768674e-06
9.9551368e-06
1.7132015e-05
2.1821319e-05
1.1574097e-05
5.3217585e-06
2.9766977e-06
1.7403245e-06
2.2283283e-05
5.6964697e-05
0.00010046331
0.00018658917
8.4722675e-05
5.3857812e-05
4.1783005e-05
1.6944206e-05
1.7622967e-05
1.8049793e-05
1.8482657e-05
2.8973768e-05
4.234415e-05
4.8010113e-05
4.3590667e-05
3.5900347e-05
2.9901338e-05
2.6182681e-05
2.4246888e-05
2.39184e-05
2.3649739e-05
2.4305182e-05
5.0975234e-05
5.3083563e-05
5.1864926e-05
4.7011441e-05
3.8375645e-05
2.7729262e-05
1.7414601e-05
9.2455032e-06
4.0957232e-06
1.5699885e-06
6.8608028e-07
3.7421135e-07
2.2710755e-07
1.6971402e-07
1.4483598e-07
1.3644836e-07
1.307546e-07
1.2577786e-07
1.2347932e-07
1.2125652e-07
1.1910406e-07
1.1732974e-07
1.1646299e-07
1.1710472e-07
1.1988039e-07
1.2476437e-07
1.3146516e-07
1.399495e-07
1.5047629e-07
1.6345804e-07
1.7909021e-07
1.9784174e-07
2.2011809e-07
2.4624574e-07
2.76746e-07
3.1196462e-07
3.514611e-07
3.9484652e-07
4.4266056e-07
4.9458435e-07
5.5130525e-07
6.1367886e-07
6.822603e-07
7.5698876e-07
8.3618936e-07
9.1921569e-07
1.0056172e-06
1.0944506e-06
1.187343e-06
1.2864653e-06
1.3893888e-06
1.4950479e-06
1.6019422e-06
1.705623e-06
1.8033821e-06
1.891052e-06
1.9640412e-06
2.0172344e-06
2.0512612e-06
2.0649683e-06
2.0742447e-06
2.096014e-06
2.2156694e-06
2.5861015e-06
3.0694212e-06
3.5332374e-06
3.9910854e-06
4.4400972e-06
4.8808569e-06
5.3131657e-06
5.7379122e-06
6.1536235e-06
6.5615651e-06
6.9617378e-06
7.3561852e-06
7.7443957e-06
8.1273962e-06
8.5053026e-06
8.8783544e-06
9.2467662e-06
9.6105693e-06
9.9698827e-06
1.0324757e-05
1.0674981e-05
1.1020431e-05
1.1361034e-05
1.16967e-05
1.2027249e-05
1.2352506e-05
1.2672325e-05
1.2986512e-05
1.3294839e-05
1.3597138e-05
1.3893242e-05
1.4183026e-05
1.4466388e-05
1.4743237e-05
1.5013538e-05
1.5277254e-05
1.5534414e-05
1.578496e-05
1.6028512e-05
1.6264866e-05
1.6493785e-05
1.6715266e-05
1.692925e-05
1.7135643e-05
1.7334331e-05
1.7525311e-05
1.7708718e-05
1.7884556e-05
1.8052803e-05
1.8213522e-05
1.8366764e-05
1.8512405e-05
1.86503e-05
1.8780425e-05
1.8903192e-05
1.9018779e-05
1.912676e-05
1.9227285e-05
1.9320677e-05
1.9406862e-05
1.9485856e-05
1.9557852e-05
1.9623056e-05
1.9681347e-05
1.9732737e-05
1.9777453e-05
1.9815752e-05
1.9847645e-05
1.9873195e-05
1.9892582e-05
1.9905989e-05
1.9913381e-05
1.991471e-05
1.9910193e-05
1.9900098e-05
1.9884525e-05
1.9863595e-05
1.9837483e-05
1.9806397e-05
1.9770552e-05
1.973018e-05
1.9685439e-05
1.9636458e-05
1.9582709e-05
1.9523908e-05
1.9461008e-05
1.939432e-05
1.9323485e-05
1.9248591e-05
1.9170058e-05
1.9088152e-05
1.9003001e-05
1.891495e-05
1.8824443e-05
1.8732001e-05
1.8637731e-05
1.8540562e-05
1.8435884e-05
1.8307207e-05
1.8128676e-05
1.7947494e-05
1.7812308e-05
1.7696623e-05
1.7580823e-05
1.7461885e-05
1.7338291e-05
1.7209762e-05
1.7077199e-05
1.6940982e-05
1.6801066e-05
1.6657873e-05
1.6512374e-05
1.6363375e-05
1.6211772e-05
1.6058286e-05
1.5903021e-05
1.5744074e-05
1.5581181e-05
1.5415691e-05
1.5247019e-05
1.5075431e-05
1.4900536e-05
1.4722746e-05
1.4540758e-05
1.4353763e-05
1.416171e-05
1.3964368e-05
1.3764459e-05
1.3556684e-05
1.3337655e-05
1.3110851e-05
1.2874885e-05
1.2628841e-05
1.237316e-05
1.2104568e-05
1.1820533e-05
1.1519036e-05
1.1195955e-05
1.0859194e-05
1.0500888e-05
1.0120793e-05
9.7172226e-06
9.2991766e-06
8.8527117e-06
8.390261e-06
8.1751528e-06
8.1802285e-06
8.3141286e-06
8.5097111e-06
8.7523037e-06
9.0263203e-06
9.3466512e-06
9.7163669e-06
1.0002043e-05
1.0097644e-05
1.0662481e-05
1.0831679e-05
1.0426593e-05
1.0899179e-05
1.1290852e-05
1.3623166e-05
9.5241737e-06
9.8403639e-06
1.6703425e-05
4.0037311e-05
2.56677e-05
1.343709e-05
2.2811968e-05
2.4903461e-05
1.8377121e-05
2.0237874e-05
3.6823003e-05
1.8002565e-05
6.785365e-06
2.0539671e-05
2.3352814e-05
1.6114816e-05
3.8117698e-06
1.9158644e-05
3.2771935e-05
4.1210172e-05
2.2096497e-05
9.9630734e-06
5.5839546e-06
3.3496682e-06
4.3095359e-05
0.00010921279
0.00018835614
0.00035107528
0.00015872896
0.00010248181
7.9613472e-05
3.1713348e-05
3.2761777e-05
3.4215718e-05
3.5254627e-05
5.534171e-05
8.0813045e-05
9.1738364e-05
8.3417228e-05
6.8789194e-05
5.7310422e-05
5.0174438e-05
4.6472646e-05
4.585656e-05
4.5357093e-05
4.6642183e-05
8.9213858e-05
9.2889879e-05
9.0741964e-05
8.2257215e-05
6.7168007e-05
4.8567837e-05
3.0529768e-05
1.6230623e-05
7.2006686e-06
2.7619449e-06
1.2046428e-06
6.5550403e-07
3.9779421e-07
2.974105e-07
2.5365314e-07
2.3889123e-07
2.2894807e-07
2.2024132e-07
2.1622359e-07
2.1235592e-07
2.0860704e-07
2.0551289e-07
2.0399471e-07
2.0510286e-07
2.0993761e-07
2.1846572e-07
2.3017827e-07
2.4501258e-07
2.6341796e-07
2.861184e-07
3.1345503e-07
3.4624719e-07
3.8520651e-07
4.3090398e-07
4.8425201e-07
5.4586568e-07
6.1498673e-07
6.9092655e-07
7.7462212e-07
8.6552904e-07
9.6484302e-07
1.0740427e-06
1.1941213e-06
1.3249895e-06
1.4637248e-06
1.6091856e-06
1.7605858e-06
1.9162608e-06
2.0790162e-06
2.2526716e-06
2.4330118e-06
2.6181617e-06
2.8054898e-06
2.9872181e-06
3.1585877e-06
3.3123069e-06
3.4403287e-06
3.5337028e-06
3.5934894e-06
3.6177503e-06
3.6342411e-06
3.6726723e-06
3.8824031e-06
4.5305099e-06
5.3763626e-06
6.1882857e-06
6.9897191e-06
7.7756277e-06
8.5470879e-06
9.3037256e-06
1.00471e-05
1.0774636e-05
1.1488562e-05
1.2188884e-05
1.2879176e-05
1.3558537e-05
1.4228771e-05
1.4890083e-05
1.554289e-05
1.6187568e-05
1.6824175e-05
1.7452918e-05
1.8073887e-05
1.8686711e-05
1.9291175e-05
1.9887155e-05
2.0474491e-05
2.1052871e-05
2.1621989e-05
2.2181591e-05
2.2731337e-05
2.327083e-05
2.3799776e-05
2.4317887e-05
2.482494e-05
2.532076e-05
2.5805188e-05
2.6278162e-05
2.6739618e-05
2.7189611e-05
2.7628018e-05
2.8054141e-05
2.8467678e-05
2.8868212e-05
2.9255742e-05
2.9630161e-05
2.9991304e-05
3.0338973e-05
3.0673165e-05
3.0994118e-05
3.1301837e-05
3.1596279e-05
3.187756e-05
3.2145759e-05
3.2400666e-05
3.2642026e-05
3.2869804e-05
3.3084725e-05
3.328709e-05
3.3476145e-05
3.3652159e-05
3.3815706e-05
3.3966653e-05
3.4105019e-05
3.4231145e-05
3.4345395e-05
3.4447557e-05
3.4537649e-05
3.4616066e-05
3.468326e-05
3.473925e-05
3.4784143e-05
3.4818257e-05
3.4841909e-05
3.4855039e-05
3.4857561e-05
3.4849859e-05
3.4832397e-05
3.480535e-05
3.476893e-05
3.4723442e-05
3.4669252e-05
3.4606735e-05
3.4536292e-05
3.4458202e-05
3.4372689e-05
3.4278834e-05
3.4176141e-05
3.4066269e-05
3.3949761e-05
3.3825998e-05
3.369513e-05
3.3557892e-05
3.3414743e-05
3.3265912e-05
3.3112006e-05
3.2953798e-05
3.2792199e-05
3.2627378e-05
3.2457451e-05
3.2274244e-05
3.2049056e-05
3.1737064e-05
3.1420479e-05
3.1184073e-05
3.098167e-05
3.0779084e-05
3.0571008e-05
3.0354792e-05
3.0129951e-05
2.9898048e-05
2.9659751e-05
2.9414975e-05
2.9164463e-05
2.8909908e-05
2.8649219e-05
2.8383973e-05
2.8115413e-05
2.7843735e-05
2.7565608e-05
2.7280577e-05
2.6990992e-05
2.6695831e-05
2.6395559e-05
2.6089493e-05
2.5778352e-05
2.5459861e-05
2.5132599e-05
2.4796481e-05
2.4451111e-05
2.410123e-05
2.3737575e-05
2.335423e-05
2.2957276e-05
2.2544288e-05
2.2113651e-05
2.1666136e-05
2.1196014e-05
2.0698865e-05
2.0171166e-05
1.9605693e-05
1.901626e-05
1.8389119e-05
1.7723824e-05
1.701742e-05
1.628566e-05
1.5504926e-05
1.4698048e-05