/*--------------------------------*- C++ -*----------------------------------*\
| =========                 |                                                 |
| \\      /  F ield         | OpenFOAM: The Open Source CFD Toolbox           |
|  \\    /   O peration     | Version:  2.4.0                                 |
|   \\  /    A nd           | Web:      www.OpenFOAM.org                      |
|    \\/     M anipulation  |                                                 |
\*---------------------------------------------------------------------------*/
FoamFile
{
    version     2.0;
    format      ascii;
    class       volScalarField;
    location    "600";
    object      kMean;
}
// * * * * * * * * * * * * * * * * * * * * * * * * * * * * * * * * * * * * * //

dimensions      [0 2 -2 0 0 0 0];

internalField   nonuniform List<scalar> 
78300
(
8.4992657e-07
8.9234415e-07
1.1660062e-06
1.0676019e-06
8.8149636e-07
4.0889773e-07
9.2022207e-08
8.543683e-09
1.1264686e-07
1.6584675e-07
1.4080261e-07
9.9853455e-08
6.5790424e-08
4.7992339e-08
3.6225767e-08
3.2155469e-08
2.7312106e-08
2.4652626e-08
2.2367229e-08
1.9820717e-08
1.7788143e-08
1.5836248e-08
1.406746e-08
1.2876171e-08
1.2122583e-08
1.1550699e-08
1.1252749e-08
1.1234153e-08
1.1462029e-08
1.1937933e-08
1.2693846e-08
1.37504e-08
1.5136167e-08
1.6869155e-08
1.8956813e-08
2.1311761e-08
2.3690032e-08
2.6023788e-08
2.822243e-08
3.0019614e-08
3.1805594e-08
3.3948564e-08
3.5968165e-08
3.7528329e-08
3.8571235e-08
3.9005896e-08
3.892016e-08
3.8270428e-08
3.7591208e-08
3.6840879e-08
3.5892775e-08
3.476641e-08
3.3356226e-08
3.1474412e-08
2.9510749e-08
2.7082708e-08
2.476031e-08
2.2008317e-08
1.9992675e-08
1.752084e-08
1.7159566e-08
1.6291943e-08
2.2977392e-08
4.0384922e-08
5.5434253e-08
7.2003889e-08
8.8013821e-08
1.0437019e-07
1.2000499e-07
1.3542019e-07
1.4989583e-07
1.6400663e-07
1.7728958e-07
1.9012727e-07
2.0234322e-07
2.1409881e-07
2.2529312e-07
2.3603343e-07
2.4631603e-07
2.5616721e-07
2.6556227e-07
2.745399e-07
2.8310453e-07
2.912643e-07
2.9900793e-07
3.0634892e-07
3.132844e-07
3.1981114e-07
3.259254e-07
3.3163289e-07
3.3692713e-07
3.4180606e-07
3.4627483e-07
3.5033113e-07
3.5397609e-07
3.5721598e-07
3.6005213e-07
3.6248958e-07
3.6453089e-07
3.6618278e-07
3.6744595e-07
3.6832214e-07
3.6881787e-07
3.6894636e-07
3.6870822e-07
3.6810493e-07
3.6715278e-07
3.6586222e-07
3.6424451e-07
3.6230357e-07
3.6005084e-07
3.5750234e-07
3.5467028e-07
3.5156261e-07
3.4819054e-07
3.4456767e-07
3.4070763e-07
3.3660011e-07
3.3226779e-07
3.2776278e-07
3.2308276e-07
3.1820813e-07
3.1315991e-07
3.0797257e-07
3.0265674e-07
2.9720381e-07
2.9163366e-07
2.8597036e-07
2.8022341e-07
2.7439544e-07
2.6849856e-07
2.625542e-07
2.5656875e-07
2.5054447e-07
2.4449368e-07
2.3843566e-07
2.3237723e-07
2.2632267e-07
2.2028147e-07
2.1426865e-07
2.0828683e-07
2.023437e-07
1.9644274e-07
1.9059621e-07
1.8480477e-07
1.7906302e-07
1.7338577e-07
1.6778624e-07
1.6227445e-07
1.5684105e-07
1.51488e-07
1.4623847e-07
1.4108305e-07
1.3603034e-07
1.310676e-07
1.2623539e-07
1.2149479e-07
1.1688384e-07
1.1232847e-07
1.0789639e-07
1.0339006e-07
9.8773494e-08
9.4041473e-08
9.0169731e-08
8.6450078e-08
8.2968242e-08
7.9413953e-08
7.5999295e-08
7.259879e-08
6.9337506e-08
6.6137133e-08
6.3051349e-08
6.0050379e-08
5.7158908e-08
5.4360287e-08
5.1670336e-08
4.9079149e-08
4.6590792e-08
4.419043e-08
4.1886873e-08
3.9678859e-08
3.7564328e-08
3.5535515e-08
3.3599347e-08
3.1749617e-08
2.9986648e-08
2.8302058e-08
2.6706381e-08
2.5182122e-08
2.3736189e-08
2.2363175e-08
2.1076961e-08
1.9856685e-08
1.8721576e-08
1.764806e-08
1.6667919e-08
1.5735572e-08
1.4905326e-08
1.4124735e-08
1.346183e-08
1.2826149e-08
1.2348444e-08
1.1875967e-08
1.160408e-08
1.1314434e-08
1.1286683e-08
1.1105388e-08
1.0923199e-08
1.0888342e-08
1.1018359e-08
1.1275141e-08
1.1315262e-08
1.1362794e-08
1.118974e-08
1.0954488e-08
1.0558456e-08
1.0373523e-08
1.093201e-08
1.3005293e-08
1.5633428e-08
3.3729157e-08
7.0123268e-08
1.4994617e-07
2.4221016e-07
4.1761999e-07
4.343929e-07
6.9509475e-07
7.7227054e-07
1.594164e-06
1.7319315e-06
2.098682e-06
1.8746093e-06
2.8279334e-06
2.7625636e-06
3.4261592e-06
3.7881429e-06
4.600242e-06
5.2636136e-06
6.6211514e-06
8.4917087e-06
9.6676088e-06
9.2865069e-06
1.368905e-05
1.7178622e-05
2.5935452e-05
2.8446036e-05
5.3528118e-05
7.3014462e-05
0.00014188474
0.00024109199
0.00023193347
0.00040884014
0.00063263902
0.00081864549
0.00061423514
0.00040618717
0.00025687592
0.0001781608
4.4311102e-05
4.4265021e-05
1.2693862e-05
1.139647e-05
8.8012382e-06
6.277011e-06
4.3878669e-06
2.7396239e-06
1.8437437e-06
1.0748324e-06
9.5765766e-07
5.4934627e-07
2.9403329e-07
3.1001111e-07
3.4744146e-07
3.1605753e-07
2.5833572e-07
1.5234717e-07
7.0939217e-08
3.1424943e-08
2.9888927e-08
2.9732162e-08
2.3401632e-08
1.6330336e-08
1.0619143e-08
7.7454095e-09
5.8599232e-09
5.2157021e-09
4.4566182e-09
4.0434407e-09
3.6965098e-09
3.3141588e-09
3.0106864e-09
2.7200385e-09
2.457712e-09
2.2861997e-09
2.1858343e-09
2.1173004e-09
2.0941905e-09
2.1183943e-09
2.185318e-09
2.2962698e-09
2.4568741e-09
2.6715333e-09
2.9459057e-09
3.2841156e-09
3.6886169e-09
4.1470549e-09
4.6218095e-09
5.1019759e-09
5.5755343e-09
6.0011347e-09
6.4373606e-09
6.9470837e-09
7.4621625e-09
7.928244e-09
8.3328573e-09
8.660117e-09
8.920876e-09
9.1070244e-09
9.3019305e-09
9.5069884e-09
9.6972837e-09
9.8694099e-09
1.0002105e-08
1.005554e-08
1.0077813e-08
9.9992082e-09
9.8905215e-09
9.654724e-09
9.4624409e-09
9.1327243e-09
9.0996847e-09
9.0344258e-09
1.0401065e-08
1.4147048e-08
1.7897053e-08
2.1808104e-08
2.5620324e-08
2.9456345e-08
3.3164209e-08
3.6814413e-08
4.030004e-08
4.3705466e-08
4.6966568e-08
5.0139942e-08
5.3204448e-08
5.6184958e-08
5.9068253e-08
6.1870421e-08
6.4592809e-08
6.7239939e-08
6.9808044e-08
7.2302656e-08
7.4724798e-08
7.7075621e-08
7.9352926e-08
8.1558148e-08
8.3690386e-08
8.5748427e-08
8.7730886e-08
8.9637925e-08
9.1467767e-08
9.3219129e-08
9.4891981e-08
9.6485286e-08
9.7998363e-08
9.9431646e-08
1.0078478e-07
1.0205806e-07
1.0325128e-07
1.0436514e-07
1.0539925e-07
1.0635322e-07
1.072272e-07
1.0802285e-07
1.0873972e-07
1.0937708e-07
1.0993679e-07
1.1042052e-07
1.1082986e-07
1.1116519e-07
1.1142759e-07
1.1161958e-07
1.1174316e-07
1.1179961e-07
1.1179036e-07
1.1171764e-07
1.1158366e-07
1.1138604e-07
1.1112714e-07
1.1081703e-07
1.1045758e-07
1.1004403e-07
1.0957802e-07
1.0906621e-07
1.0851184e-07
1.0791303e-07
1.0727194e-07
1.0659341e-07
1.0587991e-07
1.0513199e-07
1.0435108e-07
1.0354142e-07
1.0270488e-07
1.0184183e-07
1.009537e-07
1.000444e-07
9.9115967e-08
9.8169429e-08
9.7206181e-08
9.6229551e-08
9.5240748e-08
9.4241412e-08
9.3232306e-08
9.2215956e-08
9.1193424e-08
9.0162865e-08
8.9125971e-08
8.8085987e-08
8.7046565e-08
8.6006597e-08
8.4965107e-08
8.3927416e-08
8.2893871e-08
8.1866222e-08
8.0842614e-08
7.983252e-08
7.8833505e-08
7.7853324e-08
7.6879918e-08
7.5919302e-08
7.4916885e-08
7.379942e-08
7.2532599e-08
7.1416714e-08
7.0440539e-08
6.9545354e-08
6.864463e-08
6.7749557e-08
6.6843843e-08
6.5945619e-08
6.5047867e-08
6.4155747e-08
6.3266665e-08
6.2384127e-08
6.1506014e-08
6.0635454e-08
5.977248e-08
5.8918692e-08
5.8069335e-08
5.7224358e-08
5.6384776e-08
5.5551206e-08
5.4719721e-08
5.3891272e-08
5.3065231e-08
5.2241041e-08
5.1414856e-08
5.0589224e-08
4.9759375e-08
4.8921577e-08
4.8072848e-08
4.721501e-08
4.6341549e-08
4.5453262e-08
4.4541467e-08
4.3611794e-08
4.2647824e-08
4.1653412e-08
4.0617066e-08
3.9550078e-08
3.8419353e-08
3.7256242e-08
3.6021501e-08
3.4757365e-08
3.3420909e-08
3.2084287e-08
3.0610669e-08
2.9047889e-08
2.8304485e-08
2.8348254e-08
2.8824209e-08
2.9465256e-08
3.0232433e-08
3.1071388e-08
3.1952802e-08
3.2845375e-08
3.3736915e-08
3.4673345e-08
3.6098718e-08
3.7199192e-08
4.0906854e-08
4.8590545e-08
6.2248133e-08
7.7974683e-08
1.108144e-07
1.1584327e-07
1.5504879e-07
1.7331627e-07
3.122846e-07
3.3385958e-07
3.8803084e-07
3.5625331e-07
5.0300113e-07
4.9624523e-07
5.9697432e-07
6.4811662e-07
7.7115138e-07
8.7114808e-07
1.0867345e-06
1.3836259e-06
1.5805867e-06
1.512137e-06
2.1958065e-06
2.7344756e-06
4.0609947e-06
4.446793e-06
8.3177618e-06
1.1301188e-05
2.1910605e-05
3.709323e-05
3.5783762e-05
6.310801e-05
9.7625892e-05
0.00012654297
9.5479946e-05
6.3009375e-05
3.9892248e-05
2.7724481e-05
7.2121421e-06
7.1875352e-06
2.3199796e-06
2.0657228e-06
1.6198344e-06
1.1937159e-06
8.768484e-07
5.9711075e-07
4.4185255e-07
3.1494496e-07
2.8954948e-07
2.3339269e-07
1.2724784e-06
1.3454364e-06
1.336649e-06
1.2087197e-06
9.7872332e-07
6.9156212e-07
4.2372756e-07
2.2121797e-07
1.0256009e-07
4.5939672e-08
2.3848309e-08
1.4100945e-08
8.566515e-09
6.3534065e-09
5.1432305e-09
4.6495116e-09
4.2638319e-09
4.0444394e-09
3.8944842e-09
3.750784e-09
3.6348221e-09
3.5278218e-09
3.4428012e-09
3.4207433e-09
3.4645441e-09
3.5548464e-09
3.6955284e-09
3.8916961e-09
4.1467259e-09
4.4671456e-09
4.8615282e-09
5.3408526e-09
5.9169908e-09
6.6014417e-09
7.4041308e-09
8.32439e-09
9.339725e-09
1.0440806e-08
1.1632696e-08
1.2889425e-08
1.4236037e-08
1.5750609e-08
1.7430414e-08
1.9226874e-08
2.1108492e-08
2.3052907e-08
2.5048466e-08
2.7081009e-08
2.9207902e-08
3.148131e-08
3.3850629e-08
3.6272328e-08
3.8699723e-08
4.1033476e-08
4.3223689e-08
4.5155683e-08
4.6759532e-08
4.7877025e-08
4.8553271e-08
4.869445e-08
4.8826032e-08
4.9244537e-08
5.2334e-08
6.1749012e-08
7.3628837e-08
8.5119699e-08
9.6465418e-08
1.07628e-07
1.1859841e-07
1.293742e-07
1.3991652e-07
1.5024901e-07
1.6038068e-07
1.7033045e-07
1.80126e-07
1.8978266e-07
1.9930794e-07
2.0870871e-07
2.1799872e-07
2.2718388e-07
2.3626211e-07
2.4523392e-07
2.5410224e-07
2.6286709e-07
2.7152401e-07
2.8006956e-07
2.8850014e-07
2.9681019e-07
3.0499345e-07
3.1304523e-07
3.209592e-07
3.2872812e-07
3.3634645e-07
3.4380902e-07
3.5110966e-07
3.5824506e-07
3.6521125e-07
3.7200504e-07
3.7862246e-07
3.8506161e-07
3.9131897e-07
3.9738986e-07
4.0326878e-07
4.0895403e-07
4.1444177e-07
4.1972508e-07
4.248008e-07
4.2967028e-07
4.3433367e-07
4.3878955e-07
4.4303406e-07
4.4706917e-07
4.5089681e-07
4.5451813e-07
4.5793208e-07
4.6114081e-07
4.6414651e-07
4.669424e-07
4.6952225e-07
4.7190598e-07
4.7410962e-07
4.7611858e-07
4.7792322e-07
4.795365e-07
4.8097133e-07
4.8222275e-07
4.8328609e-07
4.8417176e-07
4.8488816e-07
4.8543647e-07
4.8581474e-07
4.860318e-07
4.8609477e-07
4.8600396e-07
4.8575712e-07
4.8536299e-07
4.8482939e-07
4.8415938e-07
4.8335338e-07
4.8242027e-07
4.8136613e-07
4.8019503e-07
4.7890892e-07
4.775137e-07
4.7601637e-07
4.7440905e-07
4.7268879e-07
4.7086574e-07
4.6895612e-07
4.6696164e-07
4.6487307e-07
4.6270534e-07
4.6047086e-07
4.5817336e-07
4.5581258e-07
4.5341585e-07
4.5100548e-07
4.4859905e-07
4.4618469e-07
4.4373654e-07
4.4105935e-07
4.3765483e-07
4.3327761e-07
4.2911594e-07
4.2581845e-07
4.2286759e-07
4.1995107e-07
4.1693179e-07
4.1382001e-07
4.1061921e-07
4.0735881e-07
4.0402104e-07
4.0061792e-07
3.9714983e-07
3.9361838e-07
3.9003002e-07
3.8639517e-07
3.8272135e-07
3.7898905e-07
3.7518892e-07
3.7132948e-07
3.6741756e-07
3.6343239e-07
3.5937376e-07
3.5524355e-07
3.5103727e-07
3.4673551e-07
3.4234598e-07
3.3785192e-07
3.3321888e-07
3.2843062e-07
3.2348618e-07
3.1835941e-07
3.1303631e-07
3.0747775e-07
3.0169212e-07
2.9560634e-07
2.8919262e-07
2.82421e-07
2.7530389e-07
2.6769263e-07
2.596815e-07
2.5114119e-07
2.4217893e-07
2.3270608e-07
2.2296165e-07
2.1237844e-07
2.0115247e-07
1.9575999e-07
1.9594654e-07
1.9916478e-07
2.0381532e-07
2.093817e-07
2.1570165e-07
2.2239648e-07
2.2933784e-07
2.3605103e-07
2.4232217e-07
2.5055208e-07
2.5582739e-07
2.6388907e-07
2.8140817e-07
2.9650849e-07
3.137131e-07
3.6806178e-07
3.8711238e-07
3.9480497e-07
4.4712336e-07
5.8765584e-07
6.0069246e-07
6.0653104e-07
6.1571549e-07
6.6976849e-07
6.9092142e-07
7.1692185e-07
7.0977698e-07
7.3913723e-07
7.6530828e-07
8.8988486e-07
1.0736828e-06
1.2606425e-06
1.1622836e-06
1.4470231e-06
1.664191e-06
1.994429e-06
2.1196857e-06
3.5552865e-06
4.5304731e-06
8.181463e-06
1.3191157e-05
1.3245387e-05
2.2856449e-05
3.4143652e-05
4.4434325e-05
3.5434263e-05
2.4479814e-05
1.6626324e-05
1.2346937e-05
5.6241404e-06
5.4266337e-06
3.6540724e-06
3.2227167e-06
2.7034835e-06
2.225224e-06
1.8472735e-06
1.5328152e-06
1.3220499e-06
1.1931001e-06
1.1284691e-06
1.1394009e-06
4.6504577e-06
4.9176844e-06
4.8448738e-06
4.3793266e-06
3.5437635e-06
2.5356427e-06
1.577437e-06
8.3003418e-07
3.6940557e-07
1.4854009e-07
6.8428721e-08
3.770388e-08
2.2237739e-08
1.6635068e-08
1.3933703e-08
1.2672261e-08
1.1982483e-08
1.1563268e-08
1.134147e-08
1.118042e-08
1.1042947e-08
1.092697e-08
1.0868018e-08
1.0959034e-08
1.1232361e-08
1.1654293e-08
1.2225754e-08
1.2963788e-08
1.3887045e-08
1.5019213e-08
1.6387926e-08
1.8031377e-08
1.9989948e-08
2.2304145e-08
2.5010091e-08
2.8118097e-08
3.1579796e-08
3.5370012e-08
3.9520618e-08
4.3973604e-08
4.8765519e-08
5.4134914e-08
6.0142221e-08
6.6655371e-08
7.3564658e-08
8.0799435e-08
8.8303113e-08
9.602856e-08
1.041117e-07
1.1275451e-07
1.2178731e-07
1.3104383e-07
1.4036427e-07
1.4940344e-07
1.5791676e-07
1.6552929e-07
1.7189536e-07
1.7649816e-07
1.7933629e-07
1.8023085e-07
1.8078056e-07
1.8247956e-07
1.9308782e-07
2.2585889e-07
2.682338e-07
3.0893476e-07
3.491733e-07
3.8867408e-07
4.2755906e-07
4.6574574e-07
5.0319338e-07
5.3990686e-07
5.7598749e-07
6.1145046e-07
6.464254e-07
6.8094626e-07
7.1505596e-07
7.4876467e-07
7.8212447e-07
8.151537e-07
8.478482e-07
8.8020423e-07
9.1223212e-07
9.4393078e-07
9.7528512e-07
1.0062802e-06
1.036903e-06
1.0671332e-06
1.0969477e-06
1.1263281e-06
1.1552517e-06
1.1836915e-06
1.2116261e-06
1.2390363e-06
1.2658989e-06
1.2922006e-06
1.3179261e-06
1.3430629e-06
1.3675957e-06
1.3915163e-06
1.4148114e-06
1.4374632e-06
1.4594499e-06
1.4807633e-06
1.5013888e-06
1.5213003e-06
1.5404836e-06
1.5589424e-06
1.5766755e-06
1.5936772e-06
1.6099312e-06
1.6254426e-06
1.6402169e-06
1.6542573e-06
1.6675581e-06
1.6801255e-06
1.6919656e-06
1.7030546e-06
1.7133658e-06
1.7229664e-06
1.7319167e-06
1.7401649e-06
1.7476718e-06
1.7544811e-06
1.7606395e-06
1.7661296e-06
1.7709313e-06
1.7750799e-06
1.7786056e-06
1.7815124e-06
1.7837913e-06
1.7854722e-06
1.786581e-06
1.7871184e-06
1.7870743e-06
1.7864786e-06
1.7853596e-06
1.7837283e-06
1.7815849e-06
1.7789603e-06
1.7758771e-06
1.7723495e-06
1.7683841e-06
1.7640014e-06
1.7592275e-06
1.7540338e-06
1.7484069e-06
1.7423829e-06
1.7360214e-06
1.72933e-06
1.7222739e-06
1.7149058e-06
1.7072733e-06
1.6993895e-06
1.6912551e-06
1.6829668e-06
1.6746139e-06
1.6662568e-06
1.6578617e-06
1.6493217e-06
1.6399326e-06
1.6278313e-06
1.6120989e-06
1.5970502e-06
1.5852198e-06
1.5746546e-06
1.5642293e-06
1.553398e-06
1.5422178e-06
1.5306833e-06
1.5189163e-06
1.5068422e-06
1.4945106e-06
1.4819193e-06
1.4690768e-06
1.4560048e-06
1.4427441e-06
1.429322e-06
1.4156677e-06
1.4017449e-06
1.3875856e-06
1.3732156e-06
1.3585584e-06
1.3436121e-06
1.3283845e-06
1.3128588e-06
1.2969636e-06
1.280726e-06
1.2640858e-06
1.2469127e-06
1.2291468e-06
1.2107822e-06
1.1917238e-06
1.1719165e-06
1.1512167e-06
1.1296515e-06
1.1069531e-06
1.0830096e-06
1.0577159e-06
1.031109e-06
1.002644e-06
9.7265577e-07
9.4068106e-07
9.0709412e-07
8.715933e-07
8.3503542e-07
7.9539276e-07
7.5341915e-07
7.3326783e-07
7.3395448e-07
7.4600851e-07
7.6347356e-07
7.8437795e-07
8.0814456e-07
8.3332592e-07
8.5945418e-07
8.8468747e-07
9.0816608e-07
9.3872528e-07
9.5811224e-07
9.8566888e-07
1.0456913e-06
1.0896995e-06
1.1401206e-06
1.316693e-06
1.3849527e-06
1.3730221e-06
1.5582802e-06
1.9557865e-06
1.9821204e-06
1.9469505e-06
2.0169933e-06
2.0704582e-06
2.1603445e-06
2.15266e-06
2.0705812e-06
2.0540662e-06
2.0496156e-06
2.3058483e-06
2.7045163e-06
3.2178723e-06
2.9106529e-06
3.2943684e-06
3.5551476e-06
3.4210225e-06
3.5000876e-06
4.9495542e-06
5.5287367e-06
8.2063685e-06
1.152893e-05
1.3041765e-05
2.0821986e-05
2.7313709e-05
3.5364816e-05
3.4701712e-05
2.7419167e-05
2.1673171e-05
1.8294114e-05
1.4136363e-05
1.3421444e-05
1.1743386e-05
1.0365596e-05
8.8273482e-06
7.4178247e-06
6.2689215e-06
5.3474616e-06
4.6873208e-06
4.3199773e-06
4.094818e-06
4.1956324e-06
1.2388658e-05
1.3099807e-05
1.289451e-05
1.1655656e-05
9.4322701e-06
6.7598322e-06
4.2139715e-06
2.220946e-06
9.8520022e-07
3.9150021e-07
1.7712767e-07
9.6396946e-08
5.6632376e-08
4.2404819e-08
3.5731663e-08
3.2512838e-08
3.0899694e-08
2.9898655e-08
2.9403501e-08
2.9081027e-08
2.8797385e-08
2.8567255e-08
2.848168e-08
2.8770556e-08
2.9527881e-08
3.0675795e-08
3.2212593e-08
3.4182261e-08
3.6636997e-08
3.9639393e-08
4.3262017e-08
4.7606027e-08
5.2778127e-08
5.8885817e-08
6.6025564e-08
7.4229529e-08
8.3379374e-08
9.340991e-08
1.0440973e-07
1.1623479e-07
1.2896452e-07
1.432212e-07
1.5918907e-07
1.7653091e-07
1.949555e-07
2.1427741e-07
2.3434178e-07
2.5502262e-07
2.7665743e-07
2.9978909e-07
3.2397414e-07
3.4876729e-07
3.7374542e-07
3.9799427e-07
4.208435e-07
4.4130558e-07
4.5843315e-07
4.708646e-07
4.7854696e-07
4.810504e-07
4.8254582e-07
4.8713142e-07
5.1518649e-07
6.0198842e-07
7.1457468e-07
8.2265114e-07
9.295155e-07
1.0343938e-06
1.1376555e-06
1.2390596e-06
1.3385267e-06
1.4360468e-06
1.5319094e-06
1.6261395e-06
1.7190907e-06
1.8108471e-06
1.9015275e-06
1.9911547e-06
2.0798681e-06
2.1677155e-06
2.2546867e-06
2.3407704e-06
2.4259939e-06
2.5103539e-06
2.5938107e-06
2.6763237e-06
2.7578583e-06
2.8383602e-06
2.917768e-06
2.9960325e-06
3.0730931e-06
3.1488778e-06
3.2233291e-06
3.2963961e-06
3.3680166e-06
3.4381547e-06
3.50677e-06
3.5738283e-06
3.6392888e-06
3.7031293e-06
3.7653142e-06
3.8257955e-06
3.8845149e-06
3.9414492e-06
3.9965599e-06
4.0497771e-06
4.1010628e-06
4.1504262e-06
4.1978643e-06
4.2433611e-06
4.2868732e-06
4.3284135e-06
4.367996e-06
4.405629e-06
4.441297e-06
4.4750157e-06
4.5068011e-06
4.5365897e-06
4.5643101e-06
4.5901393e-06
4.6142381e-06
4.6364688e-06
4.6567265e-06
4.6751266e-06
4.6917927e-06
4.7066793e-06
4.7197314e-06
4.7310428e-06
4.7406936e-06
4.7486941e-06
4.7550204e-06
4.7597509e-06
4.7629548e-06
4.7646338e-06
4.7647605e-06
4.7634142e-06
4.7606697e-06
4.7565565e-06
4.7510747e-06
4.7443064e-06
4.7363117e-06
4.727128e-06
4.7167732e-06
4.7053016e-06
4.6927823e-06
4.6791393e-06
4.6643368e-06
4.6484706e-06
4.6316989e-06
4.6140426e-06
4.5954089e-06
4.5759374e-06
4.5557559e-06
4.5348985e-06
4.5133683e-06
4.4914216e-06
4.4692982e-06
4.4471578e-06
4.4249133e-06
4.4022759e-06
4.3773705e-06
4.3452266e-06
4.3033962e-06
4.2633589e-06
4.2319043e-06
4.203817e-06
4.1761067e-06
4.1473071e-06
4.1175757e-06
4.0868919e-06
4.0555845e-06
4.0234523e-06
3.9906288e-06
3.9571069e-06
3.9229103e-06
3.8880964e-06
3.852774e-06
3.8170163e-06
3.7806346e-06
3.7435315e-06
3.7057929e-06
3.6674876e-06
3.6284115e-06
3.5885592e-06
3.5479521e-06
3.5065449e-06
3.4641474e-06
3.4208315e-06
3.3764371e-06
3.3306163e-06
3.2832088e-06
3.2341985e-06
3.183332e-06
3.1304617e-06
3.0752047e-06
3.0176319e-06
2.9570302e-06
2.8930988e-06
2.8255579e-06
2.7545047e-06
2.6784864e-06
2.5983932e-06
2.5129919e-06
2.423276e-06
2.3284456e-06
2.23078e-06
2.1249973e-06
2.0132329e-06
1.9596325e-06
1.9614786e-06
1.9937179e-06
2.0404369e-06
2.0963541e-06
2.1599331e-06
2.2272939e-06
2.2971864e-06
2.3646594e-06
2.4274568e-06
2.5090101e-06
2.5606856e-06
2.6337299e-06
2.7922997e-06
2.9055322e-06
3.0365374e-06
3.499584e-06
3.6789075e-06
3.6354886e-06
4.1289284e-06
5.1487197e-06
5.2081893e-06
5.0973383e-06
5.2947955e-06
5.3939074e-06
5.6350146e-06
5.5835788e-06
5.3493254e-06
5.2677305e-06
5.2272379e-06
5.8508134e-06
6.831559e-06
8.136498e-06
7.335927e-06
8.1645811e-06
8.69368e-06
7.9417456e-06
8.0533924e-06
1.078445e-05
1.1439674e-05
1.5406278e-05
1.9688402e-05
2.4104629e-05
3.6266305e-05
4.3295761e-05
5.4280957e-05
6.1745977e-05
5.3898832e-05
4.5691422e-05
4.0498416e-05
3.5488308e-05
3.3653311e-05
3.0660975e-05
2.7113768e-05
2.3163163e-05
1.9531442e-05
1.6538086e-05
1.4168003e-05
1.2442465e-05
1.1498749e-05
1.0902509e-05
1.1189067e-05
2.7068805e-05
2.8620217e-05
2.8167896e-05
2.5464764e-05
2.0611148e-05
1.478076e-05
9.2220837e-06
4.8658854e-06
2.159313e-06
8.5668494e-07
3.8574514e-07
2.0916871e-07
1.2281117e-07
9.1919931e-08
7.755928e-08
7.0556914e-08
6.7138602e-08
6.5003711e-08
6.3962462e-08
6.3303979e-08
6.271919e-08
6.2248804e-08
6.208947e-08
6.2734459e-08
6.4395255e-08
6.6908696e-08
7.0268718e-08
7.4569634e-08
7.9927256e-08
8.6477638e-08
9.4378814e-08
1.0385149e-07
1.1512851e-07
1.2844471e-07
1.4401153e-07
1.6190312e-07
1.8186723e-07
2.0376084e-07
2.2777856e-07
2.5360994e-07
2.8141658e-07
3.1255326e-07
3.4743852e-07
3.8534459e-07
4.2563454e-07
4.6790358e-07
5.1181135e-07
5.5707878e-07
6.0442593e-07
6.5504409e-07
7.079768e-07
7.6224896e-07
8.1693495e-07
8.7004081e-07
9.2009172e-07
9.6493216e-07
1.0024793e-06
1.0297604e-06
1.0466352e-06
1.0521882e-06
1.0555024e-06
1.0655851e-06
1.1268143e-06
1.3162326e-06
1.5621311e-06
1.7982012e-06
2.0316295e-06
2.260705e-06
2.4862551e-06
2.7077424e-06
2.9250085e-06
3.138021e-06
3.3474215e-06
3.5532589e-06
3.756309e-06
3.9567528e-06
4.1548518e-06
4.3506547e-06
4.5444659e-06
4.7363895e-06
4.926404e-06
5.1144838e-06
5.3006887e-06
5.4850114e-06
5.667365e-06
5.8476612e-06
6.025824e-06
6.2017345e-06
6.3752595e-06
6.5462905e-06
6.7146953e-06
6.8803172e-06
7.0430299e-06
7.2027225e-06
7.3592589e-06
7.5125606e-06
7.6625394e-06
7.80912e-06
7.9522135e-06
8.0917712e-06
8.2277148e-06
8.3599385e-06
8.4883146e-06
8.6127917e-06
8.7332854e-06
8.8496435e-06
8.9617841e-06
9.0697269e-06
9.1734658e-06
9.2729659e-06
9.3681323e-06
9.4589932e-06
9.5455786e-06
9.6279065e-06
9.7059432e-06
9.7797228e-06
9.8492793e-06
9.9144746e-06
9.9751535e-06
1.0031701e-05
1.0084468e-05
1.0133154e-05
1.017753e-05
1.0217848e-05
1.0254378e-05
1.0287018e-05
1.0315651e-05
1.0340481e-05
1.0361681e-05
1.0379274e-05
1.0393209e-05
1.0403657e-05
1.0410767e-05
1.0414544e-05
1.0414928e-05
1.0412092e-05
1.0406199e-05
1.0397313e-05
1.0385436e-05
1.0370745e-05
1.0353372e-05
1.03334e-05
1.0310865e-05
1.0285888e-05
1.0258619e-05
1.0228893e-05
1.0196631e-05
1.0162042e-05
1.0125471e-05
1.0086964e-05
1.004632e-05
1.0003842e-05
9.9598092e-06
9.9142966e-06
9.8673118e-06
9.8194139e-06
9.7711263e-06
9.7227983e-06
9.6742399e-06
9.6248169e-06
9.5704291e-06
9.5002244e-06
9.4088748e-06
9.321436e-06
9.2527306e-06
9.1913724e-06
9.1308412e-06
9.067928e-06
9.0029792e-06
8.9359465e-06
8.8675487e-06
8.7973459e-06
8.7256303e-06
8.6523856e-06
8.5776645e-06
8.5015914e-06
8.4244047e-06
8.3462633e-06
8.2667563e-06
8.1856706e-06
8.1031935e-06
8.0194749e-06
7.9340698e-06
7.8469659e-06
7.7582098e-06
7.6677026e-06
7.5750287e-06
7.4803451e-06
7.3833017e-06
7.2831386e-06
7.1795059e-06
7.0723674e-06
6.9611689e-06
6.8455884e-06
6.7247884e-06
6.598924e-06
6.4664366e-06
6.3266692e-06
6.1790082e-06
6.0236674e-06
5.8574699e-06
5.6823619e-06
5.4956457e-06
5.2994939e-06
5.0921533e-06
4.8786047e-06
4.6475714e-06
4.4040182e-06
4.2873509e-06
4.2914236e-06
4.3620138e-06
4.4643031e-06
4.5867251e-06
4.7259202e-06
4.8733872e-06
5.0263788e-06
5.1740319e-06
5.3115514e-06
5.4898433e-06
5.6027823e-06
5.762678e-06
6.1082799e-06
6.3528258e-06
6.6384462e-06
7.645456e-06
8.0314928e-06
7.9328588e-06
9.0134493e-06
1.1215139e-05
1.1329889e-05
1.1081086e-05
1.1516788e-05
1.1713441e-05
1.223556e-05
1.2111342e-05
1.1593388e-05
1.1397282e-05
1.1298646e-05
1.2634149e-05
1.4739778e-05
1.7539806e-05
1.580128e-05
1.7535616e-05
1.8602171e-05
1.6805873e-05
1.7027566e-05
2.2502643e-05
2.3547585e-05
3.0881565e-05
3.8236727e-05
4.7986929e-05
7.0291386e-05
8.1486314e-05
0.00010087644
0.00011982088
0.00010859754
9.378662e-05
8.4365083e-05
7.6089731e-05
7.224835e-05
6.6409782e-05
5.8822616e-05
5.0346936e-05
4.2524787e-05
3.60311e-05
3.0919365e-05
2.7168566e-05
2.5128728e-05
2.3827803e-05
2.4462534e-05
5.190343e-05
5.4872189e-05
5.4004457e-05
4.8832733e-05
3.9537659e-05
2.8371042e-05
1.7715501e-05
9.3581991e-06
4.1571422e-06
1.6492498e-06
7.4091498e-07
4.0098464e-07
2.3537902e-07
1.7604057e-07
1.4858867e-07
1.3512989e-07
1.2863965e-07
1.2457669e-07
1.226022e-07
1.2136757e-07
1.2026736e-07
1.1938357e-07
1.1909028e-07
1.2032626e-07
1.2350506e-07
1.2832081e-07
1.3475962e-07
1.4299982e-07
1.5326515e-07
1.6581564e-07
1.8095387e-07
1.9910274e-07
2.2070874e-07
2.4622248e-07
2.7605068e-07
3.103412e-07
3.486173e-07
3.906021e-07
4.3666831e-07
4.8622308e-07
5.3956261e-07
5.9928212e-07
6.66204e-07
7.3894349e-07
8.1627719e-07
8.9742737e-07
9.8173978e-07
1.0686716e-06
1.1595804e-06
1.256759e-06
1.3583962e-06
1.462618e-06
1.5676432e-06
1.6696543e-06
1.7658123e-06
1.8519813e-06
1.9241563e-06
1.9766349e-06
2.0091232e-06
2.0198978e-06
2.0263631e-06
2.04584e-06
2.1633162e-06
2.5264016e-06
2.9979663e-06
3.4507796e-06
3.8985214e-06
4.3378941e-06
4.7704994e-06
5.1952986e-06
5.612002e-06
6.0205409e-06
6.4221529e-06
6.816929e-06
7.2063594e-06
7.5907889e-06
7.9707214e-06
8.34625e-06
8.7179586e-06
9.0860459e-06
9.4504718e-06
9.8111874e-06
1.0168307e-05
1.0521817e-05
1.0871551e-05
1.121734e-05
1.1559038e-05
1.1896417e-05
1.2229222e-05
1.2557246e-05
1.2880234e-05
1.3197888e-05
1.3509964e-05
1.381625e-05
1.4116486e-05
1.4410521e-05
1.4698186e-05
1.4979336e-05
1.5253801e-05
1.5521488e-05
1.5782244e-05
1.6035867e-05
1.6282109e-05
1.6520871e-05
1.6751991e-05
1.697518e-05
1.7190282e-05
1.7397337e-05
1.7596332e-05
1.7787201e-05
1.7969764e-05
1.8144074e-05
1.8310187e-05
1.8468139e-05
1.8617864e-05
1.8759429e-05
1.8892896e-05
1.9018003e-05
1.9134454e-05
1.9242987e-05
1.9344268e-05
1.9437723e-05
1.9522919e-05
1.9600335e-05
1.9670485e-05
1.9733178e-05
1.9788189e-05
1.9835907e-05
1.9876664e-05
1.9910506e-05
1.9937332e-05
1.9957471e-05
1.9971208e-05
1.9978553e-05
1.9979392e-05
1.9974056e-05
1.9962855e-05
1.9945915e-05
1.9923236e-05
1.989516e-05
1.9861939e-05
1.982373e-05
1.9780607e-05
1.9732797e-05
1.9680588e-05
1.9623664e-05
1.9561877e-05
1.9495626e-05
1.942557e-05
1.9351799e-05
1.9273927e-05
1.9192535e-05
1.9108159e-05
1.9020941e-05
1.8930898e-05
1.88391e-05
1.8746549e-05
1.8653914e-05
1.8560833e-05
1.8466081e-05
1.8361786e-05
1.8227173e-05
1.8052087e-05
1.7884502e-05
1.7752773e-05
1.7635103e-05
1.7519023e-05
1.7398378e-05
1.7273832e-05
1.7145289e-05
1.7014124e-05
1.6879496e-05
1.6741965e-05
1.6601499e-05
1.6458199e-05
1.6312304e-05
1.616427e-05
1.60144e-05
1.5861909e-05
1.5706388e-05
1.5548196e-05
1.5387619e-05
1.5223806e-05
1.5056732e-05
1.4886486e-05
1.4712878e-05
1.4535113e-05
1.435349e-05
1.4167337e-05
1.39752e-05
1.3776408e-05
1.3570889e-05
1.3357579e-05
1.3135863e-05
1.2904133e-05
1.2662687e-05
1.2408536e-05
1.2140422e-05
1.1857162e-05
1.1559171e-05
1.1240352e-05
1.090444e-05
1.0546254e-05
1.0169966e-05
9.7721991e-06
9.3625017e-06
8.9197545e-06
8.4540829e-06
8.2312881e-06
8.239174e-06
8.3747929e-06
8.5712954e-06
8.8064676e-06
9.0738567e-06
9.3571132e-06
9.6509608e-06
9.9344728e-06
1.0198736e-05
1.0540772e-05
1.0757397e-05
1.1064944e-05
1.1726406e-05
1.2191869e-05
1.2740264e-05
1.4664867e-05
1.5393058e-05
1.5204789e-05
1.7280682e-05
2.1466295e-05
2.1656019e-05
2.1179436e-05
2.2015225e-05
2.2374038e-05
2.3363964e-05
2.3125962e-05
2.212996e-05
2.1741513e-05
2.1547254e-05
2.4086692e-05
2.8086313e-05
3.3387336e-05
3.0062518e-05
3.3360442e-05
3.529969e-05
3.1821164e-05
3.2260416e-05
4.2452025e-05
4.4153394e-05
5.7422519e-05
7.0095349e-05
8.895688e-05
0.00012860551
0.00014777613
0.00018142988
0.00021851281
0.00020122056
0.00017355094
0.00015811577
0.00014405677
0.00013704467
0.00012635988
0.00011207713
9.6130563e-05
8.132504e-05
6.896159e-05
5.9256356e-05
5.209327e-05
4.8208083e-05
4.5715049e-05
4.6939367e-05
9.0787868e-05
9.5966537e-05
9.4450522e-05
8.5434618e-05
6.9205803e-05
4.9700598e-05
3.1063684e-05
1.6431265e-05
7.3084818e-06
2.8999819e-06
1.3006034e-06
7.0285942e-07
4.1246831e-07
3.0821265e-07
2.6015126e-07
2.3650794e-07
2.2519167e-07
2.1810274e-07
2.1466171e-07
2.1252473e-07
2.1061807e-07
2.0908576e-07
2.0857735e-07
2.1072778e-07
2.16273e-07
2.2468737e-07
2.3594362e-07
2.5035014e-07
2.6830026e-07
2.9024778e-07
3.1672168e-07
3.4846158e-07
3.8624886e-07
4.3087265e-07
4.8304697e-07
5.4303967e-07
6.1002719e-07
6.8351941e-07
7.6416683e-07
8.5093482e-07
9.4432034e-07
1.0488618e-06
1.1660296e-06
1.2934171e-06
1.4288796e-06
1.571053e-06
1.7187906e-06
1.8711282e-06
2.0304063e-06
2.2006495e-06
2.3787272e-06
2.5613542e-06
2.7453975e-06
2.9241907e-06
3.0927506e-06
3.2438346e-06
3.37042e-06
3.4625303e-06
3.5196107e-06
3.5387185e-06
3.5502838e-06
3.5847091e-06
3.7905991e-06
4.4258371e-06
5.2511089e-06
6.0437637e-06
6.8275103e-06
7.5965614e-06
8.3537378e-06
9.097213e-06
9.8265038e-06
1.0541484e-05
1.1244329e-05
1.1935199e-05
1.2616702e-05
1.328944e-05
1.3954299e-05
1.4611443e-05
1.5261893e-05
1.5905997e-05
1.6543686e-05
1.7174876e-05
1.7799768e-05
1.8418337e-05
1.9030293e-05
1.9635342e-05
2.0233229e-05
2.0823556e-05
2.1405877e-05
2.1979831e-05
2.2544974e-05
2.3100782e-05
2.3646834e-05
2.4182756e-05
2.4708095e-05
2.5222587e-05
2.5725938e-05
2.6217894e-05
2.6698157e-05
2.7166561e-05
2.7622844e-05
2.8066642e-05
2.8497523e-05
2.8915309e-05
2.9319721e-05
2.9710256e-05
3.0086648e-05
3.0448966e-05
3.0797191e-05
3.1131206e-05
3.1450699e-05
3.175576e-05
3.2046491e-05
3.232295e-05
3.2585026e-05
3.2832831e-05
3.3066477e-05
3.3285501e-05
3.3489398e-05
3.367945e-05
3.3856814e-05
3.4020491e-05
3.4169728e-05
3.4305362e-05
3.4428285e-05
3.4538166e-05
3.4634615e-05
3.4718307e-05
3.4789824e-05
3.4849242e-05
3.4896392e-05
3.4931843e-05
3.4956094e-05
3.496916e-05
3.4970847e-05
3.4961729e-05
3.4942351e-05
3.4912926e-05
3.4873462e-05
3.4824554e-05
3.476664e-05
3.4699993e-05
3.4624747e-05
3.4541296e-05
3.4450141e-05
3.4350733e-05
3.4242816e-05
3.4127087e-05
3.4004692e-05
3.3875788e-05
3.3739708e-05
3.3597465e-05
3.3449991e-05
3.3297536e-05
3.3140136e-05
3.2979657e-05
3.2817847e-05
3.2655876e-05
3.2493109e-05
3.2327391e-05
3.2144932e-05
3.1909463e-05
3.1603373e-05
3.1310412e-05
3.1080011e-05
3.0874138e-05
3.0671049e-05
3.0459982e-05
3.0242098e-05
3.0017217e-05
2.9787743e-05
2.9552206e-05
2.9311586e-05
2.9065823e-05
2.8815099e-05
2.8559826e-05
2.8300805e-05
2.8038561e-05
2.7771725e-05
2.7499585e-05
2.7222764e-05
2.694176e-05
2.6655091e-05
2.636271e-05
2.6064772e-05
2.5760944e-05
2.5449837e-05
2.5131971e-05
2.480617e-05
2.4469896e-05
2.4121975e-05
2.3762276e-05
2.3388936e-05
2.3000883e-05
2.2595301e-05
2.217271e-05
2.1727879e-05
2.1258616e-05
2.0762839e-05
2.0241275e-05
1.9683259e-05
1.9095321e-05
1.8468387e-05
1.7809764e-05
1.7113512e-05
1.6396322e-05
1.5622114e-05