/*--------------------------------*- C++ -*----------------------------------*\
| =========                 |                                                 |
| \\      /  F ield         | OpenFOAM: The Open Source CFD Toolbox           |
|  \\    /   O peration     | Version:  2.4.0                                 |
|   \\  /    A nd           | Web:      www.OpenFOAM.org                      |
|    \\/     M anipulation  |                                                 |
\*---------------------------------------------------------------------------*/
FoamFile
{
    version     2.0;
    format      ascii;
    class       volScalarField;
    location    "600";
    object      nutMean;
}
// * * * * * * * * * * * * * * * * * * * * * * * * * * * * * * * * * * * * * //

dimensions      [0 2 -1 0 0 0 0];

internalField   nonuniform List<scalar> 
78300
(
2.9446248e-12
3.0910487e-12
4.0388116e-12
3.6962517e-12
3.0447283e-12
1.4030639e-12
3.1143392e-13
2.8227436e-14
3.5873612e-13
5.028508e-13
4.0601948e-13
2.7550217e-13
1.7505369e-13
1.2419999e-13
9.1962292e-14
8.0722926e-14
6.8281648e-14
6.1776685e-14
5.6522678e-14
5.0799629e-14
4.6488871e-14
4.2421399e-14
3.8816052e-14
3.671821e-14
3.5704854e-14
3.5095354e-14
3.5228497e-14
3.6196675e-14
3.7966073e-14
4.0606245e-14
4.4291998e-14
4.9166114e-14
5.5404806e-14
6.3151051e-14
7.2509456e-14
8.3213529e-14
9.4428671e-14
1.0606772e-13
1.1782632e-13
1.2859609e-13
1.4002951e-13
1.5386114e-13
1.6807145e-13
1.8107376e-13
1.9244342e-13
2.0151109e-13
2.0845305e-13
2.1272787e-13
2.1696145e-13
2.2054556e-13
2.2252456e-13
2.2283437e-13
2.2060321e-13
2.1432269e-13
2.0640662e-13
1.9405132e-13
1.8121561e-13
1.6400588e-13
1.5117618e-13
1.3393988e-13
1.3210308e-13
1.2579486e-13
1.7721639e-13
3.1117063e-13
4.2712752e-13
5.5479854e-13
6.7815697e-13
8.0418471e-13
9.2465277e-13
1.0434287e-12
1.1549652e-12
1.2636906e-12
1.3660373e-12
1.4649533e-12
1.5590786e-12
1.6496568e-12
1.7359104e-12
1.8186657e-12
1.8978944e-12
1.9737989e-12
2.0461889e-12
2.1153626e-12
2.1813542e-12
2.2442261e-12
2.3038917e-12
2.3604549e-12
2.4138936e-12
2.4641829e-12
2.511294e-12
2.5552709e-12
2.5960637e-12
2.6336564e-12
2.6680888e-12
2.6993431e-12
2.7274279e-12
2.7523917e-12
2.7742445e-12
2.7930254e-12
2.8087539e-12
2.8214819e-12
2.8312148e-12
2.837966e-12
2.8417856e-12
2.8427756e-12
2.8409407e-12
2.8362923e-12
2.8289559e-12
2.819012e-12
2.8065473e-12
2.7915922e-12
2.7742346e-12
2.7545981e-12
2.7327767e-12
2.7088318e-12
2.6828495e-12
2.6549349e-12
2.6251929e-12
2.5935439e-12
2.5601629e-12
2.5254512e-12
2.4893912e-12
2.4518315e-12
2.4129345e-12
2.3729653e-12
2.3320063e-12
2.2899907e-12
2.2470721e-12
2.2034357e-12
2.1591547e-12
2.1142496e-12
2.0688134e-12
2.0230114e-12
1.9768928e-12
1.9304749e-12
1.883853e-12
1.8371751e-12
1.7904943e-12
1.7438431e-12
1.6972949e-12
1.6509655e-12
1.6048748e-12
1.5590823e-12
1.5136147e-12
1.4685665e-12
1.4239427e-12
1.379702e-12
1.335958e-12
1.292813e-12
1.250344e-12
1.208479e-12
1.167233e-12
1.1267849e-12
1.0870617e-12
1.04813e-12
1.0098915e-12
9.7265871e-13
9.3613185e-13
9.0060389e-13
8.6550426e-13
8.3135452e-13
7.9663272e-13
7.6106156e-13
7.2460072e-13
6.9476852e-13
6.6610816e-13
6.3928017e-13
6.1189396e-13
5.8558364e-13
5.5938232e-13
5.3425373e-13
5.095945e-13
4.8581816e-13
4.6269532e-13
4.404162e-13
4.1885248e-13
3.9812611e-13
3.7816068e-13
3.5898761e-13
3.4049252e-13
3.2274335e-13
3.0573034e-13
2.8943762e-13
2.7380537e-13
2.5888697e-13
2.4463458e-13
2.3105069e-13
2.1807073e-13
2.0577585e-13
1.9403124e-13
1.8289017e-13
1.7231093e-13
1.6240049e-13
1.5299813e-13
1.4425197e-13
1.3598041e-13
1.284283e-13
1.2124446e-13
1.1484731e-13
1.0883276e-13
1.03725e-13
9.8827004e-14
9.5146232e-14
9.1505738e-14
8.9410824e-14
8.7179055e-14
8.6965234e-14
8.5568343e-14
8.4246711e-14
8.4072062e-14
8.4824928e-14
8.6193941e-14
8.5561246e-14
8.4675429e-14
8.1895337e-14
7.8490414e-14
7.3848795e-14
7.0637712e-14
7.2299424e-14
8.3357207e-14
9.6922894e-14
2.0191795e-13
4.0472325e-13
8.3348478e-13
1.2972624e-12
2.1574951e-12
2.1673094e-12
3.353841e-12
3.6086722e-12
7.2250331e-12
7.6251288e-12
8.9902687e-12
7.82639e-12
1.152599e-11
1.1011592e-11
1.337778e-11
1.4489515e-11
1.722134e-11
1.9267119e-11
2.3674817e-11
2.9629656e-11
3.2883963e-11
3.0760039e-11
4.4106028e-11
5.3780352e-11
7.8801287e-11
8.3781677e-11
1.5264162e-10
2.0146525e-10
3.8006014e-10
6.3007444e-10
5.9443072e-10
1.0331095e-09
1.5852178e-09
2.0464692e-09
1.5417789e-09
1.0310482e-09
6.6474111e-10
4.7403256e-10
1.2225657e-10
1.2764094e-10
3.8487797e-11
3.6293317e-11
2.9078381e-11
2.124351e-11
1.5056239e-11
9.4627846e-12
6.3833899e-12
3.7229922e-12
3.3172926e-12
1.9032452e-12
6.0200578e-12
6.3461822e-12
7.1121531e-12
6.4667828e-12
5.2733101e-12
3.0893816e-12
1.4188653e-12
6.1361344e-13
5.6257277e-13
5.3388061e-13
4.0505259e-13
2.730848e-13
1.7031793e-13
1.2052951e-13
8.8739136e-14
7.8191342e-14
6.6176268e-14
6.0067301e-14
5.5315749e-14
5.0243798e-14
4.6536077e-14
4.308685e-14
4.0084063e-14
3.8533087e-14
3.8055398e-14
3.8024292e-14
3.8745958e-14
4.0339232e-14
4.2777533e-14
4.6158404e-14
5.0661655e-14
5.6451561e-14
6.3725841e-14
7.2655978e-14
8.3379488e-14
9.5693172e-14
1.0887176e-13
1.2288914e-13
1.3756062e-13
1.5191926e-13
1.6748642e-13
1.8606328e-13
2.0605713e-13
2.2605657e-13
2.4568244e-13
2.6438071e-13
2.8234154e-13
2.9913532e-13
3.1724704e-13
3.3630921e-13
3.5526118e-13
3.7380055e-13
3.908881e-13
4.0461463e-13
4.1651942e-13
4.2336548e-13
4.2774366e-13
4.2514491e-13
4.2280475e-13
4.1255228e-13
4.1395771e-13
4.1220451e-13
4.7403702e-13
6.4415858e-13
8.1491814e-13
9.9300334e-13
1.1665885e-12
1.3412575e-12
1.510091e-12
1.6762992e-12
1.8350136e-12
1.9900762e-12
2.1385671e-12
2.2830634e-12
2.4226025e-12
2.558317e-12
2.6896049e-12
2.8171987e-12
2.9411598e-12
3.0616941e-12
3.1786302e-12
3.2922198e-12
3.4025096e-12
3.5095519e-12
3.6132467e-12
3.7136592e-12
3.8107485e-12
3.9044594e-12
3.9947287e-12
4.0815639e-12
4.1648841e-12
4.2446307e-12
4.3208024e-12
4.3933521e-12
4.4622487e-12
4.527512e-12
4.589126e-12
4.6471036e-12
4.701436e-12
4.7521547e-12
4.799242e-12
4.8426802e-12
4.8824765e-12
4.9187057e-12
4.951348e-12
4.9803697e-12
5.0058559e-12
5.027882e-12
5.0465213e-12
5.0617906e-12
5.0737386e-12
5.082481e-12
5.0881082e-12
5.0906792e-12
5.0902581e-12
5.086947e-12
5.0808468e-12
5.0718485e-12
5.0600603e-12
5.0459396e-12
5.0295728e-12
5.0107426e-12
4.9895233e-12
4.9662186e-12
4.9409762e-12
4.9137102e-12
4.8845193e-12
4.8536234e-12
4.8211348e-12
4.7870794e-12
4.7515216e-12
4.7146548e-12
4.6765639e-12
4.6372661e-12
4.5968261e-12
4.5554224e-12
4.5131472e-12
4.4700478e-12
4.4261875e-12
4.3817177e-12
4.3366937e-12
4.29119e-12
4.2452416e-12
4.1989632e-12
4.1524034e-12
4.105478e-12
4.0582642e-12
4.0109096e-12
3.9635808e-12
3.9162269e-12
3.8688037e-12
3.8215536e-12
3.7744921e-12
3.7276993e-12
3.6810904e-12
3.6350967e-12
3.5896077e-12
3.5449761e-12
3.5006531e-12
3.4569126e-12
3.4112687e-12
3.3603862e-12
3.3027025e-12
3.2518916e-12
3.2074424e-12
3.1666811e-12
3.1256675e-12
3.0849112e-12
3.0436705e-12
3.0027708e-12
2.9618925e-12
2.9212707e-12
2.8807872e-12
2.8406017e-12
2.8006177e-12
2.7609776e-12
2.7216829e-12
2.6828065e-12
2.6441318e-12
2.6056565e-12
2.5674271e-12
2.5294712e-12
2.4916104e-12
2.4538877e-12
2.4162747e-12
2.378746e-12
2.3411264e-12
2.3035321e-12
2.2657456e-12
2.2275973e-12
2.1889513e-12
2.1498903e-12
2.1101181e-12
2.0696708e-12
2.0281531e-12
1.9858212e-12
1.9419277e-12
1.8966481e-12
1.849459e-12
1.8008747e-12
1.7493881e-12
1.6964269e-12
1.6402041e-12
1.5826427e-12
1.5217884e-12
1.4609265e-12
1.3938115e-12
1.323893e-12
1.2914222e-12
1.2896019e-12
1.3020733e-12
1.3165775e-12
1.3312808e-12
1.3437685e-12
1.3528775e-12
1.3575071e-12
1.3575037e-12
1.3550792e-12
1.36762e-12
1.3635189e-12
1.4506615e-12
1.6673487e-12
2.0690142e-12
2.5071075e-12
3.4512083e-12
3.4816874e-12
4.5341829e-12
4.9029915e-12
8.6206605e-12
8.9480621e-12
1.0137906e-11
9.0473645e-12
1.252156e-11
1.207293e-11
1.4253817e-11
1.5159966e-11
1.7676277e-11
1.9530342e-11
2.3818457e-11
2.959665e-11
3.2976658e-11
3.0696955e-11
4.3429285e-11
5.2549327e-11
7.5866858e-11
8.0485056e-11
1.4586439e-10
1.9152058e-10
3.6063219e-10
5.9581136e-10
5.635388e-10
9.7905293e-10
1.5010166e-09
1.9383537e-09
1.4652719e-09
9.8005313e-10
6.3365377e-10
4.530232e-10
1.2174504e-10
1.2681771e-10
4.2307928e-11
3.931037e-11
3.183594e-11
2.3964957e-11
1.791516e-11
1.2207196e-11
9.0608264e-12
6.4467734e-12
5.9272244e-12
4.778431e-12
7.878899e-11
8.3294701e-11
8.274828e-11
7.4794016e-11
6.0418058e-11
4.2410424e-11
2.5630409e-11
1.3064106e-11
5.8388514e-12
2.4936367e-12
1.2419671e-12
7.0699911e-13
4.126591e-13
2.9711679e-13
2.3470692e-13
2.0992921e-13
1.9109019e-13
1.8146512e-13
1.7609418e-13
1.7190385e-13
1.6984881e-13
1.6894561e-13
1.6979037e-13
1.7434207e-13
1.8238143e-13
1.9304148e-13
2.0676347e-13
2.2409734e-13
2.4547059e-13
2.7155222e-13
3.0315578e-13
3.4129009e-13
3.8707634e-13
4.4166407e-13
5.06141e-13
5.8089218e-13
6.653302e-13
7.6051126e-13
8.6792158e-13
9.8673611e-13
1.1200656e-12
1.2756583e-12
1.4554773e-12
1.6577515e-12
1.8819315e-12
2.12811e-12
2.3972125e-12
2.6897395e-12
3.0121529e-12
3.3674473e-12
3.7498776e-12
4.1541052e-12
4.5732292e-12
4.9926312e-12
5.4019037e-12
5.7812177e-12
6.1149435e-12
6.3750383e-12
6.5601542e-12
6.6514537e-12
6.7164287e-12
6.7939717e-12
7.2124072e-12
8.5024491e-12
1.0138599e-11
1.1720915e-11
1.3283247e-11
1.4820365e-11
1.6331021e-11
1.7814882e-11
1.9266591e-11
2.0689406e-11
2.2084567e-11
2.3454678e-11
2.4803551e-11
2.6133298e-11
2.7444953e-11
2.8739463e-11
3.001872e-11
3.1283538e-11
3.2533632e-11
3.3769071e-11
3.499026e-11
3.6197201e-11
3.738928e-11
3.8566024e-11
3.9726936e-11
4.0871253e-11
4.1998111e-11
4.3106864e-11
4.4196643e-11
4.5266448e-11
4.6315516e-11
4.7343138e-11
4.8348464e-11
4.9331036e-11
5.0290309e-11
5.1225843e-11
5.2137091e-11
5.3023793e-11
5.3885462e-11
5.4721454e-11
5.5531013e-11
5.6313901e-11
5.7069593e-11
5.7797135e-11
5.849609e-11
5.9166646e-11
5.9808823e-11
6.0422428e-11
6.1006926e-11
6.1562592e-11
6.2089687e-11
6.2588373e-11
6.3058505e-11
6.3500378e-11
6.3914295e-11
6.4299319e-11
6.4654594e-11
6.4982862e-11
6.5286336e-11
6.5563e-11
6.5811528e-11
6.6033705e-11
6.6231311e-11
6.640366e-11
6.6550111e-11
6.6672095e-11
6.6770768e-11
6.6846299e-11
6.6898409e-11
6.6928324e-11
6.6937018e-11
6.6924538e-11
6.689057e-11
6.6836319e-11
6.6762863e-11
6.6670621e-11
6.6559654e-11
6.6431182e-11
6.6286043e-11
6.6124798e-11
6.5947715e-11
6.5755608e-11
6.5549437e-11
6.5328122e-11
6.5091252e-11
6.4840227e-11
6.4577282e-11
6.4302649e-11
6.4015058e-11
6.3716568e-11
6.3408885e-11
6.3092522e-11
6.2767446e-11
6.2437416e-11
6.2105511e-11
6.1774146e-11
6.1441691e-11
6.1104586e-11
6.0735949e-11
6.0267154e-11
5.9664385e-11
5.9091284e-11
5.8637205e-11
5.8230868e-11
5.782926e-11
5.7413502e-11
5.6985001e-11
5.6544243e-11
5.6095276e-11
5.5635655e-11
5.5167033e-11
5.4689465e-11
5.4203172e-11
5.3709041e-11
5.3208506e-11
5.2702607e-11
5.2188653e-11
5.1665358e-11
5.1133896e-11
5.0595206e-11
5.0046431e-11
4.9487539e-11
4.8918788e-11
4.8339562e-11
4.7747189e-11
4.7142728e-11
4.6523874e-11
4.588588e-11
4.5226511e-11
4.4545635e-11
4.3839651e-11
4.3106631e-11
4.2341187e-11
4.1544471e-11
4.0706427e-11
3.982322e-11
3.8890728e-11
3.7910661e-11
3.6862544e-11
3.5759364e-11
3.4583312e-11
3.3349153e-11
3.2044686e-11
3.070282e-11
2.9244628e-11
2.7723059e-11
2.7008132e-11
2.6954038e-11
2.7204932e-11
2.753784e-11
2.7879942e-11
2.8208081e-11
2.8472998e-11
2.8661478e-11
2.8720743e-11
2.863577e-11
2.8695922e-11
2.8342046e-11
2.8236158e-11
2.9043709e-11
2.950733e-11
3.0110496e-11
3.4125856e-11
3.4655367e-11
3.4264092e-11
3.7578461e-11
4.807942e-11
4.7734575e-11
4.7000211e-11
4.6429592e-11
4.9484803e-11
4.9903442e-11
5.0854806e-11
4.9367473e-11
5.046049e-11
5.1186071e-11
5.822373e-11
6.8638544e-11
7.8566694e-11
7.0514029e-11
8.5757502e-11
9.6049924e-11
1.1255166e-10
1.1600834e-10
1.8937509e-10
2.3337377e-10
4.0966337e-10
6.4702234e-10
6.3538926e-10
1.0787073e-09
1.6001305e-09
2.0629785e-09
1.6516758e-09
1.1521968e-09
7.9959865e-10
6.1059124e-10
2.8363749e-10
2.8646413e-10
1.9971448e-10
1.844438e-10
1.6018658e-10
1.3487014e-10
1.1378579e-10
9.4697388e-11
8.1903396e-11
7.3852288e-11
6.9855713e-11
7.0544577e-11
6.2464798e-10
6.6045953e-10
6.5064886e-10
5.8782731e-10
4.7450236e-10
3.3727047e-10
2.0695774e-10
1.0633064e-10
4.5628297e-11
1.7489247e-11
7.710722e-12
4.0829603e-12
2.3154352e-12
1.6819264e-12
1.3770677e-12
1.238888e-12
1.1639998e-12
1.1248861e-12
1.1120873e-12
1.1114716e-12
1.1192874e-12
1.1350412e-12
1.1626534e-12
1.2115779e-12
1.2826164e-12
1.3728202e-12
1.4838246e-12
1.6193396e-12
1.7832723e-12
1.9805508e-12
2.2168373e-12
2.4995393e-12
2.8367862e-12
3.2371233e-12
3.7088079e-12
4.2564859e-12
4.880138e-12
5.5888397e-12
6.3963699e-12
7.3023721e-12
8.3227241e-12
9.5105901e-12
1.089344e-11
1.246605e-11
1.4226368e-11
1.6178946e-11
1.8330333e-11
2.0687624e-11
2.328836e-11
2.6160461e-11
2.9262893e-11
3.255256e-11
3.5978266e-11
3.9429605e-11
4.280811e-11
4.5968108e-11
4.8759939e-11
5.097695e-11
5.255844e-11
5.3400316e-11
5.3940326e-11
5.4606544e-11
5.7718186e-11
6.7458675e-11
8.0120653e-11
9.2278634e-11
1.0429855e-10
1.160981e-10
1.2771371e-10
1.3912079e-10
1.5030706e-10
1.6127399e-10
1.7205185e-10
1.8264514e-10
1.9309262e-10
2.0340444e-10
2.1359342e-10
2.2366258e-10
2.336275e-10
2.4349368e-10
2.5325985e-10
2.6292491e-10
2.7249195e-10
2.8196065e-10
2.9132651e-10
3.0058507e-10
3.0973243e-10
3.1876252e-10
3.2766848e-10
3.3644479e-10
3.4508468e-10
3.5358008e-10
3.6192458e-10
3.7011249e-10
3.7813685e-10
3.8599368e-10
3.9367846e-10
4.011874e-10
4.0851594e-10
4.1566167e-10
4.2262057e-10
4.2938733e-10
4.3595546e-10
4.4232247e-10
4.4848402e-10
4.544323e-10
4.6016308e-10
4.6567746e-10
4.7097511e-10
4.760543e-10
4.8091016e-10
4.8554425e-10
4.8995818e-10
4.941529e-10
4.9812673e-10
5.018815e-10
5.0541905e-10
5.0873225e-10
5.1181314e-10
5.1468172e-10
5.1735612e-10
5.1982079e-10
5.2206404e-10
5.2409889e-10
5.2593933e-10
5.2758017e-10
5.2901534e-10
5.3025542e-10
5.3130943e-10
5.3217856e-10
5.3286013e-10
5.3336305e-10
5.3369507e-10
5.3385641e-10
5.3384402e-10
5.3366685e-10
5.3333334e-10
5.3284679e-10
5.3220721e-10
5.3142391e-10
5.305036e-10
5.2945049e-10
5.2826661e-10
5.2695807e-10
5.2553263e-10
5.2398176e-10
5.2230147e-10
5.2050254e-10
5.1860275e-10
5.1660441e-10
5.1449709e-10
5.1229652e-10
5.1001698e-10
5.0766232e-10
5.0523281e-10
5.0275727e-10
5.0026243e-10
4.9776632e-10
4.9525889e-10
4.9270825e-10
4.8990418e-10
4.8628982e-10
4.8158999e-10
4.7709406e-10
4.7356004e-10
4.7040421e-10
4.6729016e-10
4.6405479e-10
4.6071517e-10
4.5726966e-10
4.5375466e-10
4.5014792e-10
4.4646424e-10
4.4270293e-10
4.3886657e-10
4.3496166e-10
4.3100033e-10
4.2699079e-10
4.2291188e-10
4.187527e-10
4.1452289e-10
4.1023013e-10
4.0585155e-10
4.0138658e-10
3.9683758e-10
3.9219953e-10
3.8745105e-10
3.826003e-10
3.7762927e-10
3.7249903e-10
3.6719166e-10
3.6170542e-10
3.5601193e-10
3.5009469e-10
3.4391082e-10
3.3746837e-10
3.3068743e-10
3.2353447e-10
3.1597814e-10
3.080295e-10
2.9952573e-10
2.9056692e-10
2.8101465e-10
2.7098071e-10
2.6037503e-10
2.4945363e-10
2.3759964e-10
2.2524268e-10
2.1943667e-10
2.1899294e-10
2.2103131e-10
2.2374922e-10
2.2654393e-10
2.2923568e-10
2.3141531e-10
2.3297883e-10
2.3347982e-10
2.3278117e-10
2.3319503e-10
2.3022355e-10
2.2872771e-10
2.3400147e-10
2.3500599e-10
2.3703132e-10
2.6424223e-10
2.6841042e-10
2.5759186e-10
2.8317289e-10
3.4527288e-10
3.3979659e-10
3.2514712e-10
3.2816371e-10
3.2923419e-10
3.3595909e-10
3.2819582e-10
3.0926717e-10
3.0067476e-10
2.9367707e-10
3.2290996e-10
3.6958886e-10
4.2904006e-10
3.7767522e-10
4.1608717e-10
4.3715471e-10
4.0967373e-10
4.0671739e-10
5.5970757e-10
6.0456823e-10
8.7533255e-10
1.1987131e-09
1.3277478e-09
2.0727034e-09
2.7197594e-09
3.4447684e-09
3.3768213e-09
2.7280181e-09
2.2002537e-09
1.9149247e-09
1.5236876e-09
1.5136557e-09
1.3870492e-09
1.283429e-09
1.1325512e-09
9.7402577e-10
8.3605473e-10
7.1614215e-10
6.2947277e-10
5.7994388e-10
5.4978064e-10
5.6345759e-10
2.9991616e-09
3.1709535e-09
3.1208952e-09
2.8192815e-09
2.2755283e-09
1.6198841e-09
9.9608745e-10
5.1267709e-10
2.1934375e-10
8.3089213e-11
3.5927234e-11
1.877089e-11
1.0609894e-11
7.7166198e-12
6.3609312e-12
5.7247058e-12
5.408863e-12
5.2419894e-12
5.1965889e-12
5.2110379e-12
5.2611327e-12
5.3486593e-12
5.4920157e-12
5.7331091e-12
6.077406e-12
6.513099e-12
7.0469687e-12
7.6962003e-12
8.4800799e-12
9.4219142e-12
1.0548497e-11
1.1895087e-11
1.3500322e-11
1.5404944e-11
1.7648496e-11
2.0254373e-11
2.3224999e-11
2.6604107e-11
3.0458982e-11
3.4791063e-11
3.9671265e-11
4.5350771e-11
5.1968631e-11
5.9504865e-11
6.7950721e-11
7.7330002e-11
8.7673817e-11
9.9017265e-11
1.1153259e-10
1.2535693e-10
1.40297e-10
1.5614544e-10
1.7265821e-10
1.8930803e-10
2.0561354e-10
2.2088043e-10
2.3437626e-10
2.4511493e-10
2.5277805e-10
2.5688745e-10
2.59497e-10
2.6271725e-10
2.7752951e-10
3.2403637e-10
3.8468138e-10
4.4286887e-10
5.0040439e-10
5.568703e-10
6.1246583e-10
6.670614e-10
7.2061361e-10
7.7311692e-10
8.2472743e-10
8.7545822e-10
9.2550009e-10
9.7489832e-10
1.0237169e-09
1.0719681e-09
1.119727e-09
1.1670196e-09
1.2138405e-09
1.2601833e-09
1.306063e-09
1.3514779e-09
1.3964066e-09
1.4408273e-09
1.4847215e-09
1.5280599e-09
1.5708097e-09
1.6129441e-09
1.6544308e-09
1.695231e-09
1.7353137e-09
1.7746515e-09
1.8132111e-09
1.850973e-09
1.8879155e-09
1.9240203e-09
1.9592654e-09
1.9936388e-09
2.0271215e-09
2.0596874e-09
2.0913051e-09
2.1219622e-09
2.1516379e-09
2.1802946e-09
2.2079117e-09
2.2344943e-09
2.2600408e-09
2.2845428e-09
2.3079766e-09
2.3303493e-09
2.3516684e-09
2.3719384e-09
2.3911508e-09
2.4093142e-09
2.4264371e-09
2.4424854e-09
2.4574203e-09
2.4713371e-09
2.4843227e-09
2.4963029e-09
2.5072209e-09
2.5171388e-09
2.5261235e-09
2.5341501e-09
2.5411891e-09
2.5472909e-09
2.5524986e-09
2.556818e-09
2.5602357e-09
2.5627943e-09
2.5645308e-09
2.5654463e-09
2.5655259e-09
2.5648121e-09
2.5633454e-09
2.5611417e-09
2.5582008e-09
2.554567e-09
2.5502726e-09
2.5453379e-09
2.5397724e-09
2.5336053e-09
2.5268739e-09
2.5195373e-09
2.5115759e-09
2.5030414e-09
2.4940191e-09
2.4845203e-09
2.4744948e-09
2.4640178e-09
2.4531583e-09
2.4419345e-09
2.4303481e-09
2.418537e-09
2.4066307e-09
2.3947151e-09
2.3827436e-09
2.3705614e-09
2.3571603e-09
2.3398607e-09
2.3173363e-09
2.2957738e-09
2.2788385e-09
2.2637188e-09
2.2488023e-09
2.2332986e-09
2.2172926e-09
2.2007733e-09
2.183918e-09
2.1666183e-09
2.1489459e-09
2.1308973e-09
2.112485e-09
2.0937401e-09
2.074721e-09
2.0554676e-09
2.0358779e-09
2.0158994e-09
1.9955786e-09
1.9749524e-09
1.953911e-09
1.9324514e-09
1.9105851e-09
1.888288e-09
1.8654572e-09
1.8421319e-09
1.8182257e-09
1.7935511e-09
1.7680218e-09
1.7416293e-09
1.714237e-09
1.6857654e-09
1.6560084e-09
1.6250041e-09
1.5923687e-09
1.5579397e-09
1.5215667e-09
1.4833023e-09
1.4423637e-09
1.3992304e-09
1.3532386e-09
1.304923e-09
1.2538532e-09
1.2012575e-09
1.1442194e-09
1.0848407e-09
1.0569575e-09
1.054822e-09
1.0646546e-09
1.0777689e-09
1.0912549e-09
1.1042498e-09
1.1147771e-09
1.1223344e-09
1.1247586e-09
1.1214063e-09
1.1233361e-09
1.1089478e-09
1.1014442e-09
1.1260555e-09
1.1290253e-09
1.1372996e-09
1.2651013e-09
1.2844316e-09
1.2281854e-09
1.3512145e-09
1.6363974e-09
1.6073565e-09
1.5319375e-09
1.5505536e-09
1.5429101e-09
1.5767419e-09
1.5309864e-09
1.4366823e-09
1.3855512e-09
1.3454273e-09
1.4713947e-09
1.6760488e-09
1.9482336e-09
1.7085838e-09
1.8519018e-09
1.9146297e-09
1.699795e-09
1.6716294e-09
2.1717772e-09
2.2228749e-09
2.9106197e-09
3.6126686e-09
4.3428364e-09
6.3418094e-09
7.5790903e-09
9.4027566e-09
1.0653397e-08
9.529619e-09
8.2079316e-09
7.5437304e-09
6.8550361e-09
6.8085922e-09
6.5141776e-09
6.0374314e-09
5.34478e-09
4.6133032e-09
3.9665952e-09
3.415453e-09
3.0083777e-09
2.7806805e-09
2.637201e-09
2.7077429e-09
1.053001e-08
1.1132274e-08
1.0953677e-08
9.8942977e-09
7.9856053e-09
5.6876982e-09
3.5007795e-09
1.8042941e-09
7.7259016e-10
2.9226883e-10
1.2567356e-10
6.538041e-11
3.6948444e-11
2.6866498e-11
2.2186835e-11
1.9961246e-11
1.8889092e-11
1.8319369e-11
1.8171435e-11
1.8234719e-11
1.8419315e-11
1.8734737e-11
1.9245111e-11
2.0094615e-11
2.1304399e-11
2.2835268e-11
2.4710041e-11
2.6988079e-11
2.9737915e-11
3.3040892e-11
3.6990816e-11
4.1711295e-11
4.7337784e-11
5.4013244e-11
6.1876744e-11
7.1012001e-11
8.1429804e-11
9.3283227e-11
1.0680951e-10
1.2201566e-10
1.3914463e-10
1.5907658e-10
1.823082e-10
2.0877441e-10
2.3844497e-10
2.7140472e-10
3.0776295e-10
3.4764155e-10
3.9163637e-10
4.4023468e-10
4.9276526e-10
5.4849889e-10
6.0657886e-10
6.6515587e-10
7.2253208e-10
7.7626994e-10
8.2378533e-10
8.6161266e-10
8.8861154e-10
9.0311197e-10
9.1230173e-10
9.2359508e-10
9.7542711e-10
1.1385331e-09
1.3514493e-09
1.5557107e-09
1.7576892e-09
1.9558961e-09
2.1510513e-09
2.3426904e-09
2.5306725e-09
2.7149688e-09
2.8961365e-09
3.0742146e-09
3.249878e-09
3.4232832e-09
3.5946575e-09
3.7640415e-09
3.9317006e-09
4.0977257e-09
4.2620981e-09
4.4247957e-09
4.5858708e-09
4.7453181e-09
4.9030626e-09
5.059028e-09
5.2131492e-09
5.365324e-09
5.5154369e-09
5.6633947e-09
5.8090835e-09
5.9523676e-09
6.0931379e-09
6.2312991e-09
6.3667332e-09
6.4993726e-09
6.6291412e-09
6.7559738e-09
6.8797937e-09
7.000559e-09
7.1182019e-09
7.232631e-09
7.3437348e-09
7.4514689e-09
7.5557604e-09
7.6564776e-09
7.7535493e-09
7.8469932e-09
7.9368039e-09
8.0229519e-09
8.1053542e-09
8.1840351e-09
8.2590207e-09
8.3303264e-09
8.3979227e-09
8.461839e-09
8.522105e-09
8.578601e-09
8.6311902e-09
8.6802066e-09
8.7259551e-09
8.7681754e-09
8.8066675e-09
8.8416489e-09
8.8733539e-09
8.9016958e-09
8.92657e-09
8.948153e-09
8.9665963e-09
8.9819192e-09
8.9940755e-09
9.0032136e-09
9.0094637e-09
9.0128293e-09
9.0132572e-09
9.0108974e-09
9.0058914e-09
8.9982943e-09
8.988106e-09
8.9754818e-09
8.9605347e-09
8.9433358e-09
8.9239184e-09
8.9023847e-09
8.8788662e-09
8.8532187e-09
8.8253736e-09
8.7955118e-09
8.7639329e-09
8.7306767e-09
8.695567e-09
8.6588674e-09
8.6208203e-09
8.58149e-09
8.5408821e-09
8.4994809e-09
8.4577412e-09
8.4159658e-09
8.3739913e-09
8.3312739e-09
8.2842752e-09
8.2235798e-09
8.1445202e-09
8.0688198e-09
8.0093738e-09
7.9563024e-09
7.9039485e-09
7.8495276e-09
7.7933411e-09
7.7353469e-09
7.6761698e-09
7.6154272e-09
7.5533729e-09
7.4899928e-09
7.4253322e-09
7.3594992e-09
7.2927003e-09
7.2250742e-09
7.1562643e-09
7.0860855e-09
7.0147005e-09
6.9422399e-09
6.8683176e-09
6.7929229e-09
6.7160967e-09
6.6377537e-09
6.5575332e-09
6.475572e-09
6.3915674e-09
6.3048602e-09
6.2151474e-09
6.1223983e-09
6.0261335e-09
5.9260735e-09
5.8214932e-09
5.7125278e-09
5.5978275e-09
5.4768218e-09
5.3489812e-09
5.2144913e-09
5.0705997e-09
4.9189926e-09
4.7573351e-09
4.5875071e-09
4.4079932e-09
4.223112e-09
4.0227871e-09
3.8145383e-09
3.7168128e-09
3.7093132e-09
3.7439445e-09
3.7901298e-09
3.8376251e-09
3.8833999e-09
3.9204918e-09
3.9471211e-09
3.9556601e-09
3.9439374e-09
3.9506198e-09
3.8998909e-09
3.8734537e-09
3.9591314e-09
3.9671968e-09
3.9954578e-09
4.4414832e-09
4.506524e-09
4.3058679e-09
4.7398615e-09
5.7278169e-09
5.6188013e-09
5.3494298e-09
5.4180999e-09
5.3810191e-09
5.4999117e-09
5.333218e-09
5.0001006e-09
4.8107732e-09
4.6665893e-09
5.098425e-09
5.8014695e-09
6.740765e-09
5.9018659e-09
6.3801772e-09
6.5590946e-09
5.7634654e-09
5.6533714e-09
7.2303086e-09
7.2952707e-09
9.2627349e-09
1.111627e-08
1.3732101e-08
1.9433003e-08
2.2532444e-08
2.7598321e-08
3.2738622e-08
3.0554213e-08
2.6744487e-08
2.5044314e-08
2.3508608e-08
2.3418005e-08
2.2628929e-08
2.0986322e-08
1.8609388e-08
1.6088759e-08
1.3843015e-08
1.1950968e-08
1.0537281e-08
9.7545951e-09
9.2549374e-09
9.509487e-09
3.0034209e-08
3.1748936e-08
3.1233436e-08
2.8210466e-08
2.2768126e-08
1.622446e-08
9.995882e-09
5.1599821e-09
2.2132304e-09
8.3766257e-10
3.5922173e-10
1.8644837e-10
1.0537359e-10
7.657026e-11
6.3273567e-11
5.6903263e-11
5.3881627e-11
5.2270887e-11
5.1858611e-11
5.2051359e-11
5.258648e-11
5.3494134e-11
5.4956276e-11
5.7380795e-11
6.0831789e-11
6.5200654e-11
7.0551117e-11
7.7050802e-11
8.4896659e-11
9.43201e-11
1.0558855e-10
1.1905462e-10
1.3510489e-10
1.5414757e-10
1.7658055e-10
2.0264643e-10
2.3237971e-10
2.6621519e-10
3.0483154e-10
3.4825004e-10
3.9715245e-10
4.5405184e-10
5.2038268e-10
5.9596832e-10
6.8072247e-10
7.748881e-10
8.7877797e-10
9.9273348e-10
1.1184369e-09
1.2572947e-09
1.4074107e-09
1.5667002e-09
1.732714e-09
1.9001772e-09
2.0642315e-09
2.2179121e-09
2.3538253e-09
2.462058e-09
2.5393212e-09
2.5808441e-09
2.6071357e-09
2.6392329e-09
2.7866708e-09
3.2518978e-09
3.8597164e-09
4.4427841e-09
5.0193281e-09
5.5850583e-09
6.1420618e-09
6.6890009e-09
7.225489e-09
7.7514326e-09
8.2684369e-09
8.776604e-09
9.2778707e-09
9.7726807e-09
1.0261688e-08
1.0745006e-08
1.1223397e-08
1.169712e-08
1.2166125e-08
1.2630349e-08
1.3089942e-08
1.3544892e-08
1.3994986e-08
1.4440006e-08
1.487977e-08
1.5313986e-08
1.5742326e-08
1.6164526e-08
1.6580262e-08
1.6989147e-08
1.7390872e-08
1.7785165e-08
1.8171691e-08
1.8550256e-08
1.8920645e-08
1.9282671e-08
1.9636117e-08
1.9980861e-08
2.0316712e-08
2.0643405e-08
2.096062e-08
2.1268227e-08
2.1566021e-08
2.1853628e-08
2.2130846e-08
2.2397728e-08
2.2654259e-08
2.2900354e-08
2.3135779e-08
2.3360599e-08
2.357489e-08
2.3778696e-08
2.397193e-08
2.4154676e-08
2.4327018e-08
2.4488614e-08
2.4639074e-08
2.4779347e-08
2.4910303e-08
2.5031198e-08
2.5141463e-08
2.5241715e-08
2.5332621e-08
2.5413935e-08
2.5485356e-08
2.5547387e-08
2.5600458e-08
2.5644625e-08
2.5679754e-08
2.5706268e-08
2.5724537e-08
2.5734571e-08
2.5736218e-08
2.5729903e-08
2.571603e-08
2.5694756e-08
2.5666079e-08
2.5630442e-08
2.5588168e-08
2.5539457e-08
2.5484406e-08
2.5423304e-08
2.5356528e-08
2.5283665e-08
2.520452e-08
2.5119607e-08
2.5029781e-08
2.4935156e-08
2.4835229e-08
2.4730752e-08
2.4622415e-08
2.4510404e-08
2.4394734e-08
2.4276787e-08
2.4157861e-08
2.403882e-08
2.3919205e-08
2.3797464e-08
2.3663502e-08
2.3490436e-08
2.32649e-08
2.3048904e-08
2.2879308e-08
2.2727901e-08
2.2578549e-08
2.2423286e-08
2.2262979e-08
2.2097496e-08
2.1928629e-08
2.175528e-08
2.1578178e-08
2.1397279e-08
2.1212716e-08
2.1024794e-08
2.0834105e-08
2.0641045e-08
2.0444596e-08
2.024423e-08
2.0040411e-08
1.9833512e-08
1.9622432e-08
1.9407138e-08
1.9187749e-08
1.8964021e-08
1.8734924e-08
1.8500849e-08
1.8260931e-08
1.801329e-08
1.7757058e-08
1.7492147e-08
1.7217189e-08
1.6931386e-08
1.6632666e-08
1.6321416e-08
1.599378e-08
1.5648132e-08
1.5282952e-08
1.4898778e-08
1.4487741e-08
1.4054663e-08
1.3592865e-08
1.3107725e-08
1.2594898e-08
1.2066732e-08
1.1494947e-08
1.0901396e-08
1.0623041e-08
1.0601619e-08
1.0700751e-08
1.0832933e-08
1.0968874e-08
1.1099916e-08
1.1206116e-08
1.1282381e-08
1.1306825e-08
1.1273514e-08
1.1292386e-08
1.1147061e-08
1.1071876e-08
1.1315118e-08
1.1333623e-08
1.1414039e-08
1.2682914e-08
1.2859946e-08
1.2284475e-08
1.3529095e-08
1.6325663e-08
1.5992816e-08
1.5217679e-08
1.5417304e-08
1.5299537e-08
1.5637407e-08
1.5157014e-08
1.4204994e-08
1.3643612e-08
1.323328e-08
1.4453985e-08
1.6436853e-08
1.9085832e-08
1.6682331e-08
1.803554e-08
1.8469889e-08
1.6194576e-08
1.5866956e-08
2.0122297e-08
2.0189135e-08
2.5295881e-08
2.9929962e-08
3.7391447e-08
5.1809098e-08
5.9439724e-08
7.2337134e-08
8.6387654e-08
8.3047546e-08
7.3322479e-08
6.9254162e-08
6.582095e-08
6.5845941e-08
6.38993e-08
5.9275876e-08
5.2613666e-08
4.5546014e-08
3.92282e-08
3.3949297e-08
2.9972317e-08
2.7789101e-08
2.638184e-08
2.7128865e-08
7.3935837e-08
7.8148982e-08
7.686314e-08
6.9419077e-08
5.6030251e-08
3.9954417e-08
2.4647218e-08
1.2748411e-08
5.4803364e-09
2.076237e-09
8.8879351e-10
4.6053954e-10
2.6026341e-10
1.8895987e-10
1.5617661e-10
1.4039451e-10
1.3298319e-10
1.2902555e-10
1.2801788e-10
1.2850859e-10
1.2983943e-10
1.3208738e-10
1.3569851e-10
1.416732e-10
1.5017761e-10
1.6094972e-10
1.7414418e-10
1.9017097e-10
2.0951808e-10
2.3275484e-10
2.605404e-10
2.9374418e-10
3.3331966e-10
3.802743e-10
4.3559195e-10
4.9987987e-10
5.7323133e-10
6.5671265e-10
7.5200105e-10
8.5914993e-10
9.7981225e-10
1.1201927e-09
1.2838699e-09
1.4704273e-09
1.679651e-09
1.9121412e-09
2.1686721e-09
2.4500641e-09
2.7604242e-09
3.1032645e-09
3.473954e-09
3.8673432e-09
4.2773786e-09
4.6910576e-09
5.0963756e-09
5.4761305e-09
5.812049e-09
6.0796244e-09
6.2706651e-09
6.3733819e-09
6.438345e-09
6.5169395e-09
6.8789613e-09
8.0253237e-09
9.5244484e-09
1.0962357e-08
1.2384099e-08
1.3778997e-08
1.5152284e-08
1.6500635e-08
1.7823137e-08
1.9119539e-08
2.0393837e-08
2.1646266e-08
2.2881629e-08
2.4101018e-08
2.5306061e-08
2.6497037e-08
2.7675834e-08
2.8843102e-08
2.999872e-08
3.1142537e-08
3.2274933e-08
3.3395883e-08
3.4504866e-08
3.5601356e-08
3.6684905e-08
3.7754803e-08
3.8810246e-08
3.9850587e-08
4.0875035e-08
4.1882641e-08
4.2872645e-08
4.3844383e-08
4.479703e-08
4.5730116e-08
4.6643108e-08
4.7535551e-08
4.8406909e-08
4.9256885e-08
5.0085005e-08
5.089061e-08
5.1672902e-08
5.243156e-08
5.316608e-08
5.3875545e-08
5.4559473e-08
5.5217988e-08
5.5851064e-08
5.6458488e-08
5.7039681e-08
5.7594805e-08
5.8124041e-08
5.8627493e-08
5.910495e-08
5.9556613e-08
5.9982686e-08
6.0382326e-08
6.0754564e-08
6.1101735e-08
6.1425977e-08
6.1725461e-08
6.1998775e-08
6.2247435e-08
6.2473082e-08
6.2675105e-08
6.2852762e-08
6.3007281e-08
6.3139725e-08
6.3250223e-08
6.3338446e-08
6.3405428e-08
6.3452078e-08
6.3478418e-08
6.3484074e-08
6.3470085e-08
6.3437443e-08
6.3386535e-08
6.3317356e-08
6.3230986e-08
6.3128226e-08
6.3009566e-08
6.287524e-08
6.2725965e-08
6.256266e-08
6.2384315e-08
6.2190443e-08
6.198231e-08
6.1762016e-08
6.152985e-08
6.128457e-08
6.1028021e-08
6.0761914e-08
6.0486698e-08
6.0202416e-08
5.9912469e-08
5.9620062e-08
5.9327335e-08
5.9033155e-08
5.8733719e-08
5.8404153e-08
5.7978129e-08
5.7422533e-08
5.6890301e-08
5.6472485e-08
5.6099501e-08
5.5731602e-08
5.5349086e-08
5.4954103e-08
5.4546314e-08
5.4130142e-08
5.3702876e-08
5.3266317e-08
5.2820357e-08
5.2365319e-08
5.1901961e-08
5.1431741e-08
5.0955638e-08
5.0471146e-08
4.9976957e-08
4.9474218e-08
4.8963849e-08
4.8443136e-08
4.7912001e-08
4.737073e-08
4.6818727e-08
4.6253451e-08
4.5675863e-08
4.5083835e-08
4.4472727e-08
4.3840399e-08
4.3186634e-08
4.2508045e-08
4.1802676e-08
4.1065404e-08
4.0297193e-08
3.9488524e-08
3.8635383e-08
3.7734012e-08
3.6785756e-08
3.5771168e-08
3.4702171e-08
3.3562252e-08
3.2364709e-08
3.1098765e-08
2.979493e-08