/*--------------------------------*- C++ -*----------------------------------*\
| =========                 |                                                 |
| \\      /  F ield         | OpenFOAM: The Open Source CFD Toolbox           |
|  \\    /   O peration     | Version:  2.4.0                                 |
|   \\  /    A nd           | Web:      www.OpenFOAM.org                      |
|    \\/     M anipulation  |                                                 |
\*---------------------------------------------------------------------------*/
FoamFile
{
    version     2.0;
    format      ascii;
    class       volScalarField;
    location    "600";
    object      omega;
}
// * * * * * * * * * * * * * * * * * * * * * * * * * * * * * * * * * * * * * //

dimensions      [0 0 -1 0 0 0 0];

internalField   nonuniform List<scalar> 
78300
(
288636.63
288686.54
288700.32
288833.65
289515.6
291432.02
295479.08
302673.01
314010.37
329813.04
346787.82
362441.63
375829.98
386411.76
393919.79
398343.7
399991.89
399060.36
395721.33
390174.45
382632.29
373308
362413.46
350675.33
339521.98
329123.31
319421.78
310364.21
301901.89
293992.53
286594.56
279672.29
273192.3
267123.9
261439.18
256109.32
250877.53
245350.68
239525.68
233441.11
227134.93
220644.17
214005.21
207254.37
200428.97
193566.99
186709.47
179903.22
173262.16
167044.3
161298.04
156019.07
151204.62
146855.25
142973.85
139564.67
136634.53
134192.24
132247.52
130811.23
129895.27
129511.99
129657.27
129783.85
129783.85
129783.85
129783.85
129783.85
129783.85
129783.85
129783.85
129783.85
129783.85
129783.85
129783.85
129783.85
129783.85
129783.85
129783.85
129783.85
129783.85
129783.85
129783.85
129783.85
129783.85
129783.85
129783.85
129783.85
129783.85
129783.85
129783.85
129783.85
129783.85
129783.85
129783.85
129783.85
129783.85
129783.85
129783.85
129783.85
129783.85
129783.85
129783.85
129783.85
129783.85
129783.85
129783.85
129783.85
129783.85
129783.85
129783.85
129783.85
129783.85
129783.85
129783.85
129783.85
129783.85
129783.85
129783.85
129783.85
129783.85
129783.85
129783.84
129783.85
129783.85
129783.85
129783.85
129783.84
129783.85
129783.85
129783.85
129783.85
129783.85
129783.85
129783.85
129783.85
129783.84
129783.85
129783.85
129783.84
129783.85
129783.85
129783.85
129783.85
129783.85
129783.84
129783.85
129783.85
129783.85
129783.85
129783.85
129783.85
129783.85
129783.85
129783.84
129783.85
129783.85
129783.85
129783.84
129783.85
129783.85
129783.84
129783.85
129783.85
129783.84
129783.85
129783.85
129783.84
129783.85
129783.85
129783.85
129783.85
129783.85
129783.85
129783.85
129783.84
129783.85
129783.85
129783.85
129783.85
129783.85
129783.85
129783.85
129783.85
129783.85
129783.85
129783.85
129783.85
129783.85
129783.85
129783.85
129783.85
129783.85
129783.85
129783.84
129783.85
129783.85
129783.84
129783.85
129783.85
129783.85
129783.85
129783.85
129783.84
129783.85
129783.85
129783.84
129657.28
129512.01
129895.29
130811.3
132247.51
134192.34
136634.64
139564.65
142973.98
146855.32
151204.67
156018.82
161297.58
167043.87
173262.26
179902.7
186708.68
193567.05
200429.57
207253.32
214004.05
220644.49
227134.65
233439.26
239524.1
245352.66
250877.67
256108.08
261440.19
267124.37
273191.43
279670.54
286594.56
293991.4
301901.42
310366.51
319421.34
329122.78
339524.27
350675.49
362412.53
373310.22
382630.09
390169.3
395719.59
399058.73
399989.89
398342.36
393921.54
386411.52
375828.68
362441.02
346789.96
329814.86
314010.09
302672.87
295478.99
291431.81
289515.62
288834.57
288701.21
288686.52
288636.62
48842.271
48849.978
48851.733
48873.969
48989.175
49313.191
49997.129
51212.837
53128.895
55709.275
58264.248
59256.528
62354.611
65329.192
66651.422
67401.062
67679.761
67522.775
66958.48
66020.59
64744.624
63168.329
61325.631
59339.758
57452.42
55692.743
54050.99
52518.224
51086.199
49747.765
48495.882
47324.466
46227.908
45200.983
44238.968
43337.05
42451.903
41516.922
40531.466
39502.116
38435.351
37337.227
36214.057
35071.951
33917.188
32756.243
31596.051
30444.498
29320.779
28268.599
27296.215
26402.879
25588.155
24852.143
24195.303
23618.384
23122.545
22709.255
22380.168
22137.133
21982.161
21917.342
21941.47
21962.067
21961.787
21961.771
21961.757
21961.744
21961.736
21961.725
21961.716
21961.71
21961.704
21961.699
21961.694
21961.691
21961.687
21961.684
21961.681
21961.679
21961.676
21961.674
21961.672
21961.67
21961.668
21961.666
21961.664
21961.663
21961.661
21961.659
21961.657
21961.656
21961.654
21961.653
21961.651
21961.65
21961.648
21961.647
21961.645
21961.644
21961.642
21961.641
21961.64
21961.639
21961.638
21961.637
21961.636
21961.636
21961.635
21961.633
21961.632
21961.632
21961.631
21961.629
21961.629
21961.627
21961.626
21961.626
21961.624
21961.624
21961.622
21961.621
21961.621
21961.619
21961.618
21961.617
21961.616
21961.615
21961.615
21961.613
21961.612
21961.611
21961.611
21961.61
21961.609
21961.608
21961.607
21961.606
21961.605
21961.605
21961.604
21961.604
21961.602
21961.602
21961.601
21961.6
21961.599
21961.599
21961.598
21961.598
21961.597
21961.596
21961.596
21961.595
21961.594
21961.595
21961.593
21961.594
21961.593
21961.592
21961.59
21961.589
21961.591
21961.592
21961.592
21961.591
21961.591
21961.59
21961.59
21961.589
21961.589
21961.589
21961.589
21961.589
21961.589
21961.588
21961.588
21961.588
21961.588
21961.589
21961.588
21961.588
21961.588
21961.588
21961.588
21961.589
21961.588
21961.588
21961.589
21961.589
21961.589
21961.59
21961.59
21961.59
21961.589
21961.592
21961.591
21961.592
21961.593
21961.594
21961.595
21961.596
21961.596
21961.598
21961.6
21961.602
21961.843
21941.268
21917.297
21982.176
22137.16
22380.19
22709.283
23122.575
23618.39
24195.362
24852.161
25588.229
26402.818
27296.227
28268.544
29320.901
30451.39
31589.826
32887.635
33809.918
35139.895
35924.259
37135.564
38848.548
39537.65
40539.372
41511.827
42361.037
43243.075
44259.081
43761.65
46233.823
47323.352
45678.695
50942.558
51033.246
52512.8
51477.869
55842.153
54969.168
56331.329
59148.059
60459.944
64930.683
63190.976
67611.305
64403.897
68260.72
66870.692
63940.569
62780.814
63512.923
61304
58762.348
55843.911
53128.392
51200.553
49989.494
49269.875
48892.903
48872.529
48852.9
48851.16
48843.104
16150.457
16152.646
16153.073
16160.563
16199.039
16306.382
16532.154
16933.133
17564.959
18416.918
19323.505
19833.493
20815.603
21560.225
22036.919
22283.76
22377.303
22325.913
22139.81
21830.201
21408.86
20888.004
20279.065
19622.542
18998.417
18416.488
17873.536
17366.63
16893.059
16450.421
16036.424
15649.017
15286.38
14946.758
14628.606
14330.366
14037.742
13728.687
13402.942
13062.679
12710.07
12347.05
11975.747
11598.171
11216.403
10832.581
10449.006
10068.268
9696.6885
9348.7224
9027.136
8731.6834
8462.235
8218.8095
8001.5679
7810.7584
7646.7668
7510.0779
7401.2405
7320.874
7269.6433
7248.2752
7256.1207
7262.5137
7262.2433
7262.2194
7262.1992
7262.1807
7262.1677
7262.1531
7262.1424
7262.1331
7262.125
7262.1188
7262.1131
7262.1086
7262.1046
7262.101
7262.0977
7262.0949
7262.0922
7262.0898
7262.0873
7262.0851
7262.0829
7262.0808
7262.0786
7262.0765
7262.0744
7262.0723
7262.07
7262.0679
7262.0656
7262.0635
7262.0611
7262.0589
7262.0566
7262.0543
7262.0518
7262.0494
7262.0468
7262.0447
7262.0429
7262.041
7262.0391
7262.0372
7262.0351
7262.033
7262.0309
7262.0287
7262.0264
7262.0242
7262.0219
7262.0196
7262.0172
7262.0147
7262.0121
7262.0098
7262.0071
7262.0048
7262.0021
7261.9995
7261.997
7261.9945
7261.9919
7261.9893
7261.9867
7261.9841
7261.9818
7261.9791
7261.9767
7261.9742
7261.9718
7261.9694
7261.9669
7261.9647
7261.9622
7261.96
7261.9577
7261.9555
7261.9533
7261.9513
7261.949
7261.947
7261.945
7261.943
7261.941
7261.9392
7261.9372
7261.9355
7261.9338
7261.9321
7261.9304
7261.9289
7261.9271
7261.9259
7261.9243
7261.9228
7261.9212
7261.9195
7261.9166
7261.9136
7261.9135
7261.918
7261.9165
7261.9147
7261.9136
7261.9122
7261.9113
7261.9104
7261.9094
7261.9087
7261.908
7261.9074
7261.9067
7261.9063
7261.9059
7261.9055
7261.905
7261.9047
7261.9044
7261.9042
7261.9039
7261.9039
7261.9038
7261.9037
7261.9036
7261.9038
7261.904
7261.9042
7261.9043
7261.9046
7261.9049
7261.9053
7261.9056
7261.9075
7261.9079
7261.9093
7261.9104
7261.912
7261.9138
7261.9159
7261.9172
7261.9205
7261.9238
7261.9261
7262.1349
7255.7836
7248.1846
7269.6544
7320.9052
7401.2808
7510.1167
7646.8007
7810.7817
8001.5996
8218.8062
8462.2644
8731.6981
9027.0796
9348.6896
9696.7739
10067.522
10443.457
10822.686
11237.887
11651.876
11867.028
12286.615
12751.654
13065.6
13410.055
13727.413
14040.515
14346.011
14428.367
14475.768
15294.41
15651.846
15220.24
16802.62
16897.194
17365.366
17394.168
18165.253
18368.568
17933.411
19917.46
19901.536
21349.982
20621.036
22467.928
21577.79
22550.042
22198.777
21020.406
20384.369
21000.647
20250.954
19453.898
18485.807
17566.787
16941.419
16533.048
16298.224
16180.048
16161.826
16155.015
16154.498
16151.707
7444.892
7445.733
7446.0232
7449.8837
7468.2128
7518.0272
7621.9137
7805.9992
8095.8077
8490.2024
8925.9921
9200.107
9645.4983
9955.3245
10156.34
10270.166
10313.854
10290.469
10204.976
10062.539
9868.6277
9628.7817
9348.3172
9045.7756
8758.0518
8489.769
8239.4463
8005.7455
7787.4192
7583.3504
7392.4925
7213.8804
7046.696
6890.1199
6743.4415
6605.9527
6471.1007
6328.7085
6178.6248
6021.8358
5859.3497
5692.0598
5520.9683
5346.9608
5171.0166
4994.1193
4817.3332
4641.8418
4470.5523
4310.1168
4161.8438
4025.611
3901.3676
3789.1215
3688.9482
3600.9628
3525.3434
3462.3158
3412.1336
3375.0908
3351.4943
3341.724
3345.3731
3348.1303
3347.8923
3347.8666
3347.8445
3347.8251
3347.8104
3347.7969
3347.7873
3347.7781
3347.7712
3347.7664
3347.7618
3347.7589
3347.7564
3347.7542
3347.7524
3347.7508
3347.7495
3347.7483
3347.7469
3347.7456
3347.7444
3347.743
3347.7415
3347.7399
3347.7382
3347.7364
3347.7343
3347.7322
3347.7299
3347.7275
3347.7249
3347.7222
3347.7194
3347.7164
3347.7133
3347.7099
3347.7064
3347.7033
3347.7004
3347.6973
3347.6941
3347.6908
3347.6872
3347.6836
3347.6798
3347.6759
3347.6719
3347.6678
3347.6635
3347.6592
3347.6548
3347.6502
3347.6456
3347.641
3347.6362
3347.6315
3347.6267
3347.6218
3347.6168
3347.612
3347.6071
3347.6021
3347.5971
3347.5922
3347.5873
3347.5824
3347.5775
3347.5727
3347.5679
3347.5631
3347.5583
3347.5537
3347.549
3347.5444
3347.5399
3347.5355
3347.5311
3347.5268
3347.5225
3347.5184
3347.5143
3347.5102
3347.5062
3347.5024
3347.4986
3347.4949
3347.4913
3347.4878
3347.4844
3347.4812
3347.4778
3347.4748
3347.4717
3347.4686
3347.4655
3347.4622
3347.4576
3347.4515
3347.4505
3347.4563
3347.4538
3347.4507
3347.4482
3347.4458
3347.4436
3347.4417
3347.4398
3347.4382
3347.4366
3347.4352
3347.4337
3347.4326
3347.4315
3347.4305
3347.4294
3347.4286
3347.4277
3347.4271
3347.4264
3347.426
3347.4257
3347.4252
3347.4248
3347.4249
3347.4248
3347.425
3347.425
3347.4252
3347.4257
3347.426
3347.4264
3347.4288
3347.4295
3347.4314
3347.433
3347.4353
3347.4381
3347.4409
3347.4431
3347.4478
3347.4529
3347.4559
3347.6174
3344.9232
3341.5907
3351.4979
3375.1251
3412.1833
3462.3624
3525.3823
3601.0047
3688.9679
3789.0921
3901.3898
4025.6547
4161.7841
4310.0885
4470.607
4639.995
4816.6007
4959.7664
5211.4421
5346.7154
5541.2561
5703.4426
5899.0675
6018.6818
6183.4441
6328.2889
6492.7033
6609.1898
6658.1566
6624.3745
7053.7507
7217.4891
7088.9618
7667.4502
7812.9466
8005.9404
8240.9023
8123.4297
8642.2658
8432.8228
9220.9256
9283.7605
9762.0803
9761.1179
10276.786
10123.69
10306.358
10376.223
9934.5265
9504.5509
9705.9535
9330.6224
8962.1429
8524.0863
8100.1393
7816.0217
7625.9388
7518.3347
7464.7868
7452.8923
7448.7414
7448.1457
7446.4285
4130.6187
4131.0207
4131.3946
4134.0693
4144.8844
4172.8703
4230.3721
4331.8632
4491.4053
4711.5915
4957.9092
5120.0771
5357.1611
5535.2302
5633.0888
5696.7745
5721.01
5708.215
5660.9552
5582.0679
5474.6608
5341.7527
5186.2968
5018.5189
4858.8918
4710.044
4571.1559
4441.4924
4320.3638
4207.1451
4101.2572
4002.1602
3909.4036
3822.5343
3741.1551
3664.876
3590.086
3511.1336
3427.9136
3340.9576
3250.8451
3158.0673
3063.1887
2966.6741
2869.0833
2770.9596
2672.8955
2575.5449
2480.516
2391.4891
2309.2141
2233.6122
2164.6607
2102.3689
2046.7744
1997.9437
1955.9761
1920.9997
1893.155
1872.614
1859.5473
1854.2152
1856.3533
1857.81
1857.6008
1857.5763
1857.5553
1857.5379
1857.5247
1857.5146
1857.5081
1857.5018
1857.4978
1857.4961
1857.4944
1857.4947
1857.495
1857.4956
1857.4966
1857.4975
1857.4985
1857.4995
1857.5001
1857.5006
1857.5009
1857.501
1857.5008
1857.5002
1857.4994
1857.4983
1857.4967
1857.4949
1857.4928
1857.4903
1857.4876
1857.4845
1857.4812
1857.4775
1857.4735
1857.4692
1857.4645
1857.4601
1857.4558
1857.4512
1857.4462
1857.441
1857.4355
1857.4298
1857.4239
1857.4177
1857.4113
1857.4047
1857.3979
1857.3909
1857.3837
1857.3764
1857.3689
1857.3614
1857.3535
1857.3458
1857.3379
1857.3299
1857.3218
1857.3138
1857.3057
1857.2975
1857.2893
1857.2811
1857.273
1857.2648
1857.2567
1857.2486
1857.2406
1857.2326
1857.2247
1857.2168
1857.2091
1857.2014
1857.1938
1857.1863
1857.179
1857.1717
1857.1645
1857.1575
1857.1506
1857.1437
1857.1369
1857.1305
1857.1241
1857.1178
1857.1117
1857.1057
1857.0999
1857.0943
1857.0888
1857.0834
1857.0781
1857.0729
1857.0677
1857.0623
1857.0555
1857.046
1857.0439
1857.05
1857.046
1857.0412
1857.0371
1857.0331
1857.0295
1857.0261
1857.023
1857.02
1857.0173
1857.0148
1857.0123
1857.0102
1857.0082
1857.0063
1857.0044
1857.0028
1857.0013
1856.9999
1856.9987
1856.9978
1856.997
1856.996
1856.9953
1856.9951
1856.9947
1856.9947
1856.9947
1856.9947
1856.9952
1856.9956
1856.9961
1856.9988
1856.9999
1857.0022
1857.0044
1857.0073
1857.0114
1857.0149
1857.0182
1857.0245
1857.0312
1857.0355
1857.1583
1855.7881
1854.031
1859.5345
1872.6426
1893.2036
1921.0453
1956.0123
1997.9856
2046.7771
2102.3117
2164.6795
2233.6422
2309.1397
2391.4401
2480.485
2575.3752
2672.6898
2758.8178
2882.4229
2958.1545
3089.922
3174.2114
3289.4518
3339.7911
3430.9591
3509.6441
3602.1772
3650.5576
3743.3394
3691.981
3913.7804
4004.89
3975.7842
4229.7922
4330.0912
4439.8552
4609.7496
4443.5194
4862.1641
4826.9097
5100.6317
5244.2393
5427.3784
5484.6561
5634.3384
5707.7183
5670.2568
5801.3508
5577.6797
5315.637
5392.1651
5181.8696
4964.7786
4727.9826
4498.2609
4340.3923
4236.8104
4176.782
4146.8276
4138.4137
4134.913
4134.0394
4132.4124
2570.4736
2570.6952
2571.1937
2573.4252
2580.775
2598.497
2634.1017
2696.6127
2794.7097
2931.9949
3083.6578
3190.4691
3328.554
3441.8179
3503.4889
3543.4059
3558.4409
3550.5941
3521.2836
3472.2857
3405.5636
3322.9801
3226.3605
3122.0348
3022.7361
2930.1371
2843.7325
2763.0674
2687.7171
2617.2856
2551.4161
2489.7719
2432.0683
2378.03
2327.4051
2279.9531
2233.4409
2184.3521
2132.6073
2078.5238
2022.4873
1964.7936
1905.7907
1845.7597
1785.0566
1724.0212
1663.0203
1602.4621
1543.3454
1487.95
1436.7568
1389.7101
1346.7988
1308.0335
1273.4342
1243.0439
1216.9256
1195.1614
1177.8386
1165.0738
1156.973
1153.7509
1155.229
1156.1145
1155.926
1155.9051
1155.8877
1155.8748
1155.8654
1155.8604
1155.8587
1155.857
1155.8574
1155.8603
1155.8628
1155.8675
1155.8718
1155.8761
1155.8807
1155.8849
1155.8891
1155.8929
1155.896
1155.8989
1155.9014
1155.9033
1155.9047
1155.9054
1155.9057
1155.9054
1155.9045
1155.9031
1155.901
1155.8986
1155.8955
1155.892
1155.8879
1155.8833
1155.8782
1155.8727
1155.8664
1155.8604
1155.8542
1155.8475
1155.8403
1155.8328
1155.8248
1155.8164
1155.8077
1155.7986
1155.7891
1155.7794
1155.7693
1155.759
1155.7484
1155.7375
1155.7265
1155.7152
1155.7036
1155.692
1155.6802
1155.6683
1155.6563
1155.6443
1155.6321
1155.6199
1155.6076
1155.5954
1155.5832
1155.571
1155.5588
1155.5467
1155.5347
1155.5226
1155.5107
1155.4989
1155.4873
1155.4757
1155.4643
1155.4531
1155.442
1155.431
1155.4202
1155.4096
1155.3992
1155.3889
1155.3787
1155.3689
1155.3592
1155.3498
1155.3405
1155.3315
1155.3227
1155.3142
1155.3058
1155.2977
1155.2898
1155.2819
1155.274
1155.266
1155.2565
1155.2436
1155.2401
1155.2455
1155.2397
1155.2331
1155.227
1155.2211
1155.2157
1155.2107
1155.2059
1155.2014
1155.1973
1155.1935
1155.1896
1155.1864
1155.1833
1155.1803
1155.1775
1155.1749
1155.1726
1155.1704
1155.1686
1155.167
1155.1657
1155.1642
1155.163
1155.1625
1155.1618
1155.1616
1155.1615
1155.1613
1155.1618
1155.1623
1155.163
1155.166
1155.1676
1155.1704
1155.1732
1155.1769
1155.1823
1155.1867
1155.1913
1155.1993
1155.2079
1155.2137
1155.3102
1154.5367
1153.5019
1156.9312
1165.0851
1177.8751
1195.1945
1216.9472
1243.071
1273.4093
1307.9386
1346.7973
1389.7135
1436.6336
1487.8692
1543.2322
1602.7508
1661.7197
1726.4326
1786.6728
1842.8498
1910.1475
1967.0059
2043.5074
2080.4437
2134.4751
2182.4194
2235.0065
2267.8537
2344.0322
2332.6563
2434.4138
2491.3024
2497.1025
2630.1569
2687.9455
2761.8186
2841.5524
2793.9426
3027.9248
3084.864
3172.2053
3305.6987
3406.7491
3416.9607
3482.0669
3583.8921
3507.8406
3595.9438
3482.3123
3340.8352
3351.1731
3229.5213
3087.0332
2942.5142
2804.3863
2706.3067
2643.2422
2605.0991
2585.8435
2579.1313
2575.5881
2574.3923
2572.5271
1727.8944
1728.0163
1728.6306
1730.6947
1736.206
1748.3644
1772.0422
1813.3556
1878.0993
1969.7558
2068.9068
2145.2584
2232.2876
2307.6247
2352.7414
2379.5874
2389.7199
2384.526
2364.8862
2332.0275
2287.2706
2231.8703
2167.0361
2097.0004
2030.3128
1968.1193
1910.0855
1855.9073
1805.3036
1758.0014
1713.7653
1672.3681
1633.6137
1597.3241
1563.3252
1531.4559
1500.2243
1467.2723
1432.533
1396.2104
1358.589
1319.857
1280.2377
1239.9205
1199.1494
1158.1556
1117.182
1076.5073
1036.7999
999.58397
965.19077
933.57938
904.74335
878.69433
855.44362
835.02079
817.46968
802.8479
791.21446
782.65695
777.24685
775.18378
776.34274
776.94585
776.77357
776.75821
776.74659
776.7402
776.73654
776.7379
776.74241
776.74664
776.75269
776.7612
776.76883
776.7787
776.78775
776.79659
776.80531
776.81345
776.82115
776.82819
776.83426
776.83972
776.8445
776.84844
776.85152
776.85369
776.85508
776.85555
776.85517
776.854
776.85194
776.84916
776.84557
776.84123
776.83613
776.83029
776.82372
776.81642
776.80811
776.80006
776.79145
776.78218
776.77222
776.76171
776.75059
776.73895
776.72677
776.71408
776.70091
776.68732
776.6733
776.65887
776.64407
776.62894
776.6135
776.59775
776.58161
776.56547
776.54906
776.53246
776.51567
776.49887
776.48195
776.46493
776.44784
776.4308
776.41377
776.39674
776.37977
776.36286
776.34605
776.32931
776.31269
776.29625
776.27998
776.26388
776.24797
776.23228
776.2168
776.20155
776.18651
776.17173
776.15714
776.14275
776.12856
776.11485
776.10143
776.08825
776.07538
776.06282
776.05059
776.03866
776.02702
776.01569
776.00459
775.99367
775.98273
775.97178
775.95909
775.94272
775.93748
775.94165
775.93392
775.92511
775.91677
775.90879
775.9013
775.89436
775.88787
775.8816
775.87587
775.87055
775.86522
775.86075
775.8564
775.85231
775.84836
775.84478
775.84152
775.83855
775.83595
775.83379
775.83188
775.82978
775.82821
775.82739
775.82635
775.82603
775.82578
775.82548
775.82613
775.82687
775.82773
775.83119
775.83334
775.83677
775.84034
775.84503
775.8519
775.85749
775.86348
775.87357
775.88414
775.89184
775.97047
775.50641
774.85253
777.16075
782.63618
791.22464
802.85468
817.46297
835.01874
855.37712
878.54705
904.70498
933.54564
964.99867
999.45779
1036.6147
1076.6316
1115.2367
1163.2558
1202.067
1239.9512
1272.1096
1312.5011
1366.759
1400.4451
1433.5367
1465.4978
1497.0187
1526.4294
1570.6855
1591.0265
1635.2783
1672.874
1689.696
1769.0636
1805.5508
1856.2714
1887.7251
1915.6335
2020.7644
2102.4496
2141.4869
2235.9229
2301.9841
2289.7262
2342.2558
2418.1902
2350.2099
2396.1401
2337.9546
2267.9949
2248.4497
2173.9371
2076.8544
1980.2419
1890.8129
1826.2419
1784.2264
1757.6816
1743.8766
1737.9149
1734.0258
1732.4574
1730.2223
1227.5724
1227.612
1228.3114
1230.3192
1234.7498
1243.5667
1260.0439
1288.5969
1333.337
1397.3347
1465.807
1522.8446
1582.2225
1635.0456
1668.5046
1687.5145
1694.7566
1691.1272
1677.2233
1653.9495
1622.2415
1582.9957
1537.0565
1487.4107
1440.1195
1396.0109
1354.8516
1316.4285
1280.5441
1246.9995
1215.6324
1186.2788
1158.7965
1133.0648
1108.9563
1086.3558
1064.2105
1040.853
1016.2234
990.46038
963.78818
936.33134
908.23658
879.63978
850.71881
821.64076
792.57412
763.72256
735.55775
709.15384
684.75166
662.32059
641.8551
623.36844
606.86688
592.37183
579.9161
569.54327
561.29537
555.2442
551.44198
550.08492
551.08383
551.53826
551.38035
551.37229
551.36822
551.36981
551.37335
551.38214
551.39372
551.40486
551.41744
551.43219
551.44562
551.46113
551.47538
551.48904
551.50223
551.51446
551.52588
551.53628
551.54529
551.55338
551.56041
551.56627
551.57091
551.5743
551.57657
551.57759
551.57744
551.57619
551.57374
551.57029
551.56573
551.56017
551.55355
551.54596
551.53737
551.52781
551.51694
551.50617
551.49457
551.48209
551.46871
551.4546
551.43969
551.4241
551.4078
551.39084
551.37324
551.35511
551.33641
551.31719
551.29749
551.27738
551.25685
551.23591
551.21451
551.19306
551.1713
551.14929
551.12705
551.10479
551.08238
551.05986
551.03725
551.01472
550.99219
550.96969
550.94725
550.92493
550.90271
550.88063
550.85868
550.837
550.81552
550.7943
550.77331
550.75263
550.73222
550.71212
550.69232
550.67284
550.65364
550.63471
550.61606
550.598
550.58035
550.56303
550.5461
550.52961
550.51352
550.49786
550.48258
550.4677
550.45314
550.43883
550.42456
550.4103
550.39425
550.37434
550.36712
550.36969
550.35983
550.34866
550.33792
550.32764
550.31798
550.30898
550.30057
550.29245
550.28503
550.27812
550.27126
550.26543
550.2598
550.25453
550.24945
550.24485
550.24067
550.23689
550.23356
550.23078
550.22835
550.22573
550.22378
550.22272
550.22147
550.22109
550.2208
550.22052
550.22142
550.22254
550.22377
550.22779
550.23068
550.23495
550.23948
550.24535
550.25393
550.26094
550.26862
550.28099
550.29387
550.30381
550.37012
550.08308
549.65026
551.29168
555.17374
561.26237
569.50705
579.8649
592.32447
606.74274
623.15236
641.76383
662.23183
684.4754
708.96636
735.29188
763.72973
790.31875
825.58405
856.54881
879.81864
896.9983
925.6812
966.72259
995.88008
1016.5233
1039.1902
1060.3625
1084.5852
1109.7119
1138.2996
1160.7547
1185.9334
1205.0487
1256.2376
1282.7709
1317.7198
1333.1665
1379.381
1426.2708
1497.1035
1530.5072
1590.8579
1631.6668
1623.2699
1670.8054
1723.9261
1668.9182
1693.8457
1658.5355
1621.841
1595.6342
1546.5573
1478.7156
1410.0676
1349.0514
1305.0741
1275.3733
1255.6753
1244.8868
1239.1928
1234.859
1232.8522
1230.1958
909.37936
909.32419
910.06336
912.05344
915.79377
922.44343
934.21932
954.46765
986.26477
1032.332
1081.9714
1125.4985
1168.8489
1207.5931
1232.2275
1246.2629
1251.649
1249.0095
1238.7541
1221.5814
1198.1861
1169.2337
1135.339
1098.6944
1063.7739
1031.1994
1000.8021
972.42852
945.93224
921.16245
898.00443
876.33304
856.04168
837.04504
819.24569
802.55674
786.20534
768.96507
750.78029
731.74997
712.0576
691.78869
671.04185
649.91648
628.54997
607.06792
585.59178
564.2781
543.47342
523.96442
505.9333
489.35674
474.22859
460.56425
448.36628
437.65136
428.44525
420.78331
414.69655
410.24809
407.47921
406.58822
407.50959
407.88418
407.74018
407.74081
407.74559
407.75618
407.76794
407.7848
407.80395
407.82249
407.84208
407.86331
407.88277
407.90405
407.92356
407.94206
407.95966
407.97587
407.99085
408.00441
408.01614
408.02657
408.03554
408.04297
408.04878
408.05297
408.05568
408.05679
408.05638
408.05454
408.05118
408.04649
408.0404
408.03301
408.02428
408.01431
408.00306
407.99059
407.97653
407.96237
407.94709
407.93074
407.91326
407.89486
407.87548
407.85524
407.83414
407.81222
407.78952
407.76615
407.74209
407.71741
407.69213
407.66636
407.64007
407.6133
407.58599
407.55858
407.53083
407.5028
407.47449
407.44615
407.41766
407.38904
407.36035
407.33174
407.30317
407.27465
407.24621
407.21795
407.18983
407.16189
407.13414
407.10673
407.0796
407.05279
407.0263
407.0002
406.97445
406.94911
406.92415
406.89961
406.87544
406.85161
406.82816
406.80545
406.78325
406.76149
406.74023
406.71953
406.69935
406.67969
406.66054
406.64189
406.62367
406.60577
406.58797
406.5702
406.55067
406.52727
406.51793
406.51873
406.50666
406.49301
406.47979
406.46714
406.45523
406.44413
406.43376
406.42376
406.41463
406.40613
406.39774
406.39059
406.3837
406.37727
406.37111
406.36554
406.36052
406.35598
406.35201
406.34872
406.34584
406.34284
406.34061
406.33944
406.33811
406.33782
406.33761
406.33753
406.33885
406.34055
406.34237
406.34714
406.35097
406.35632
406.36206
406.36939
406.37992
406.38867
406.39836
406.4133
406.42884
406.44136
406.49925
406.32107
406.02588
407.24208
410.10751
414.6009
420.68529
428.3313
437.53984
448.16617
460.26186
474.06673
489.19089
505.55414
523.7001
543.10977
564.22446
583.06688
610.24803
635.61259
649.59613
659.4935
680.44457
713.69225
737.65181
750.48655
767.15338
782.88032
800.46613
818.71085
843.02876
858.67693
875.23769
895.15672
928.62322
949.21223
973.76608
985.95859
1023.8664
1054.0062
1105.2181
1138.9666
1175.4857
1200.1514
1204.3035
1240.4553
1288.2216
1239.576
1256.6964
1230.3236
1204.9484
1181.2186
1147.2034
1098.1957
1047.749
1004.6866
974.08724
952.53157
937.28529
928.32406
922.68804
917.91259
915.40856
912.32313
696.35529
696.1755
696.90105
698.87519
702.14026
707.30184
715.81415
730.30758
753.19857
787.02427
824.37179
858.06422
891.17942
920.40139
938.92693
949.63768
953.75865
951.7802
943.97007
930.89175
913.08051
891.04334
865.24388
837.34055
810.73911
785.92164
762.76172
741.14744
720.96516
702.09727
684.46097
667.95701
652.50326
638.0372
624.4822
611.76929
599.31345
586.18579
572.33368
557.82971
542.82883
527.39134
511.58421
495.48064
479.19188
462.81521
446.44099
430.19447
414.33827
399.46522
385.71775
373.07772
361.53801
351.1161
341.81157
333.63859
326.61801
320.78047
316.14937
312.7834
310.71757
310.15527
311.04488
311.37762
311.2477
311.25796
311.27237
311.29248
311.31295
311.33804
311.36483
311.39079
311.41738
311.44495
311.47025
311.497
311.52145
311.54443
311.56603
311.58577
311.60384
311.62002
311.63393
311.64612
311.65644
311.66483
311.67118
311.67553
311.67801
311.67854
311.67717
311.67404
311.66906
311.66243
311.65408
311.64414
311.63258
311.6195
311.60487
311.58873
311.57079
311.55249
311.53283
311.51189
311.48961
311.46622
311.44168
311.41611
311.38954
311.362
311.33354
311.3043
311.27425
311.24349
311.21203
311.18001
311.1474
311.11423
311.08046
311.04655
311.0123
310.97773
310.94286
310.90796
310.87292
310.83777
310.80254
310.76744
310.73241
310.69748
310.66267
310.62809
310.59371
310.55958
310.5257
310.49225
310.45915
310.42648
310.3942
310.36242
310.33108
310.30026
310.26991
310.24009
310.21075
310.18183
310.15341
310.12586
310.09895
310.07261
310.04688
310.02185
309.99745
309.97371
309.95059
309.92807
309.9061
309.88454
309.86315
309.84179
309.8188
309.79204
309.78059
309.77961
309.76536
309.74919
309.7335
309.71849
309.70437
309.69121
309.67893
309.66713
309.65636
309.64635
309.63653
309.62814
309.62009
309.61262
309.60549
309.59907
309.59333
309.58818
309.58371
309.58005
309.57689
309.57368
309.57134
309.57023
309.56902
309.569
309.56906
309.56939
309.57136
309.57388
309.57652
309.5823
309.58729
309.59399
309.60124
309.61033
309.62309
309.63392
309.64598
309.66382
309.68239
309.69787
309.75016
309.6429
309.43809
310.3683
312.54943
315.96923
320.59978
326.42115
333.44186
341.51543
350.70864
361.28567
372.81136
385.21381
399.1074
413.85992
430.05316
443.63538
466.08408
486.57423
494.76611
499.50964
515.61462
544.54171
563.99762
571.52746
584.03486
596.1863
608.16768
624.59737
642.89779
655.82681
666.27021
687.00643
708.44804
724.66338
742.0935
753.72107
778.75174
807.10516
842.68451
874.09746
894.79885
910.52902
927.41192
949.94185
1006.9876
955.24735
967.53305
947.10583
924.13994
903.19456
879.22017
842.49473
804.73394
773.83047
752.38095
736.7231
724.67375
716.95757
711.33459
706.17472
703.13988
699.64523
548.01791
547.67239
548.3265
550.26643
553.18097
557.28018
563.41838
573.71305
590.14574
615.22772
644.03931
670.47353
696.40958
718.93672
733.41014
741.78938
745.01404
743.49604
737.39304
727.17871
713.27695
696.08228
675.95417
654.17737
633.40763
614.02823
595.94204
579.06696
563.31149
548.58194
534.81768
521.93729
509.87637
498.58768
488.00936
478.08439
468.3591
458.11348
447.29782
435.96595
424.2519
412.19973
399.85375
387.26848
374.53728
361.73709
348.93718
336.24104
323.85287
312.22897
301.4837
291.60258
282.57782
274.42853
267.15187
260.76093
255.27303
250.71609
247.10821
244.50627
242.94174
242.62455
243.50863
243.82129
243.70571
243.72601
243.75025
243.7798
243.80891
243.8419
243.87588
243.90878
243.94184
243.97514
244.00567
244.03717
244.06584
244.09254
244.11734
244.13981
244.16013
244.1781
244.19335
244.20644
244.21723
244.2257
244.23171
244.23533
244.2367
244.23576
244.23257
244.22728
244.21981
244.21038
244.19893
244.18561
244.17039
244.15339
244.13457
244.11395
244.09139
244.0682
244.04341
244.01715
243.98938
243.96032
243.92995
243.89843
243.86576
243.83201
243.79721
243.76154
243.72497
243.68761
243.64948
243.61072
243.57134
243.53133
243.49069
243.4499
243.40878
243.36731
243.32554
243.28377
243.24189
243.19991
243.15789
243.11605
243.07434
243.03278
242.9914
242.95032
242.90951
242.86903
242.82889
242.78926
242.7501
242.71145
242.67331
242.63576
242.59876
242.5624
242.52662
242.49149
242.45693
242.42291
242.3895
242.35712
242.32553
242.29462
242.26445
242.23511
242.20654
242.17876
242.15172
242.12541
242.09975
242.07459
242.04969
242.02481
241.99847
241.96862
241.9552
241.95257
241.93624
241.91765
241.89961
241.88235
241.86616
241.85107
241.83704
241.82359
241.81133
241.79997
241.78889
241.77942
241.77039
241.76206
241.75414
241.74707
241.7408
241.73524
241.73048
241.72665
241.7234
241.7202
241.71797
241.71712
241.71628
241.71674
241.7173
241.71829
241.72116
241.72475
241.72851
241.73557
241.74197
241.75031
241.75939
241.77055
241.78582
241.7991
241.8139
241.83496
241.85696
241.87577
241.92465
241.86587
241.72292
242.45251
244.1533
246.81971
250.42997
254.97139
260.45642
266.73839
273.89626
282.21366
291.21047
300.83256
311.75968
323.24378
335.97523
345.85906
365.38519
382.12697
386.24577
386.68728
399.72248
426.47091
442.36935
446.0268
455.53369
464.96697
473.12931
488.72484
503.27876
513.76483
519.8057
538.2422
554.54202
567.34228
579.45611
590.96674