/*--------------------------------*- C++ -*----------------------------------*\
| =========                 |                                                 |
| \\      /  F ield         | OpenFOAM: The Open Source CFD Toolbox           |
|  \\    /   O peration     | Version:  2.4.0                                 |
|   \\  /    A nd           | Web:      www.OpenFOAM.org                      |
|    \\/     M anipulation  |                                                 |
\*---------------------------------------------------------------------------*/
FoamFile
{
    version     2.0;
    format      ascii;
    class       volScalarField;
    location    "600";
    object      pPrime2Mean;
}
// * * * * * * * * * * * * * * * * * * * * * * * * * * * * * * * * * * * * * //

dimensions      [0 4 -4 0 0 0 0];

internalField   nonuniform List<scalar> 
78300
(
0.021856237
0.018374474
0.016306112
0.014301518
0.012741587
0.011567675
0.010625592
0.0096634208
0.0085455603
0.0074999822
0.0064737631
0.0052511952
0.0045371659
0.0037453464
0.0029877036
0.002463879
0.0019575103
0.0016074676
0.0013056634
0.0010673505
0.00087705569
0.00073247731
0.00060917621
0.00051891209
0.00042880904
0.00034911804
0.0002965343
0.0002375125
0.00019468817
0.00015393684
0.00012602323
9.8925251e-05
7.6362197e-05
5.9602421e-05
4.5964848e-05
3.4799007e-05
2.5548629e-05
1.8110159e-05
1.202083e-05
5.9780092e-06
3.8863493e-16
2.5039203e-06
3.9533854e-06
6.681111e-06
1.1119086e-05
1.6442923e-05
2.3248538e-05
3.012962e-05
3.910252e-05
4.9813338e-05
6.2038351e-05
7.547274e-05
8.9432999e-05
0.00010563905
0.00012281198
0.00014018089
0.0001574804
0.00017484686
0.00019255718
0.00021034905
0.00022889084
0.00024766593
0.00026736259
0.00028557129
0.0003029438
0.00031989083
0.00033713118
0.00035338596
0.00036977369
0.00038647334
0.00040405608
0.00042056645
0.00043684507
0.00045293964
0.00046954267
0.00048527723
0.00050110909
0.00051701481
0.0005335786
0.00054932432
0.00056505654
0.00058075942
0.0005970627
0.00061276188
0.00062872373
0.00064497206
0.00066214444
0.0006790056
0.00069645576
0.00071453054
0.00073397738
0.00075337554
0.00077340119
0.00079259635
0.00081165341
0.00082978437
0.00084797144
0.00086583915
0.0008843997
0.00090321207
0.00092346523
0.00094478956
0.00096801838
0.00099189991
0.0010169943
0.0010414272
0.0010658202
0.0010890038
0.0011123415
0.0011356529
0.0011599672
0.0011833945
0.001207064
0.0012307343
0.001255752
0.0012809231
0.0013078522
0.0013366455
0.0013678345
0.0013984276
0.001429038
0.001459927
0.0014921106
0.0015232238
0.0015542549
0.0015853921
0.0016177933
0.0016486228
0.0016789426
0.001708851
0.001739823
0.0017698118
0.0018001504
0.0018309246
0.0018633136
0.0018947145
0.0019260843
0.0019574165
0.001990075
0.002022648
0.0020563863
0.002091097
0.0021281099
0.0021661821
0.0022070569
0.002250893
0.0022980439
0.0023437047
0.0023880858
0.0024313696
0.0024759041
0.0025189288
0.002562575
0.0026066891
0.0026535201
0.0027003119
0.0027490119
0.0027994516
0.0028537342
0.0029104965
0.002971988
0.0030407329
0.0031184766
0.0031945077
0.0032628558
0.0033290472
0.0033976718
0.0034686777
0.0035441008
0.0036209474
0.003699568
0.0037771649
0.0038556133
0.003931455
0.0040074801
0.0040822398
0.0041588742
0.0042371136
0.0043194823
0.0044026204
0.0044879594
0.0045753437
0.0046670102
0.0047604808
0.0048577672
0.0049585616
0.0050659184
0.0051759919
0.0052927252
0.0054160443
0.0055507098
0.0056874729
0.0058297051
0.0059743775
0.0061279793
0.0062842226
0.0064504799
0.0066268007
0.0068208097
0.0070169637
0.0072188386
0.0074195008
0.0076274517
0.0078319856
0.0080421463
0.0082529255
0.0084781783
0.0087052805
0.0089501155
0.0092179038
0.0095257914
0.0098472052
0.010221926
0.010667785
0.01123571
0.011954146
0.013078144
0.015066028
0.018804275
0.024333952
0.034491998
0.054688689
0.099914493
0.17250897
0.32911448
0.49001412
0.66660297
0.79717954
0.92251147
1.0861321
1.274822
1.5667969
1.9878766
2.2638328
2.4652071
2.6972149
2.9002255
3.2330196
3.9263168
4.8682713
5.945124
7.0768467
7.9023433
9.483641
10.277524
11.326869
12.972092
16.020484
19.351967
22.827669
26.745129
31.485937
34.909843
33.297325
30.841586
25.828192
19.765658
14.355398
7.9208404
4.2284011
1.7857488
0.67775762
0.20078352
0.099900262
0.072051835
0.058916952
0.048823112
0.040189819
0.033078929
0.02727267
0.02185692
0.018374875
0.016305477
0.014299353
0.012738121
0.011562923
0.010619796
0.0096573328
0.0085406857
0.0074912342
0.0064573579
0.0052351787
0.0045153153
0.0037257612
0.0029750222
0.0024500517
0.0019491825
0.0016002816
0.0012994358
0.0010640244
0.00087489755
0.00073046605
0.00060774729
0.0005173693
0.00042753627
0.00034832353
0.00029574106
0.00023687251
0.00019425194
0.00015362404
0.00012574599
9.8645414e-05
7.6200171e-05
5.945355e-05
4.5817426e-05
3.4649989e-05
2.5395181e-05
1.7948563e-05
1.1839262e-05
5.738722e-06
3.8505146e-09
2.4945476e-06
3.9699725e-06
6.7193999e-06
1.1172534e-05
1.6500118e-05
2.3313867e-05
3.0218505e-05
3.9226243e-05
4.9938006e-05
6.2177843e-05
7.5608261e-05
8.9574953e-05
0.00010575787
0.00012291381
0.00014026689
0.00015755234
0.00017490615
0.000192602
0.00021038003
0.00022890617
0.00024766422
0.00026734262
0.00028555403
0.00030292718
0.00031987534
0.00033711398
0.00035337466
0.00036976145
0.00038645807
0.00040403874
0.00042055546
0.00043683489
0.00045292889
0.00046953107
0.00048527121
0.00050110292
0.00051700787
0.00053357083
0.00054932199
0.0005650547
0.00058075749
0.00059705962
0.00061276324
0.00062872431
0.00064497165
0.00066214118
0.00067900564
0.00069645388
0.00071452687
0.00073396972
0.00075336982
0.00077339381
0.00079259323
0.00081165163
0.00082978687
0.00084797381
0.00086584367
0.00088440255
0.00090321611
0.000923465
0.00094478804
0.00096801211
0.0009918942
0.0010169852
0.0010414218
0.0010658149
0.0010890033
0.0011123402
0.0011356534
0.0011599654
0.0011833972
0.0012070654
0.0012307379
0.0012557527
0.0012809267
0.0013078527
0.0013366451
0.0013678293
0.0013984265
0.0014290357
0.0014599261
0.0014921066
0.0015232235
0.0015542532
0.0015853926
0.0016177899
0.0016486232
0.0016789415
0.0017088529
0.0017398217
0.0017698137
0.0018001504
0.0018309274
0.0018633124
0.0018947159
0.0019260836
0.0019574185
0.0019900743
0.0020226498
0.0020563861
0.0020910999
0.002128111
0.002166186
0.0022070604
0.0022509009
0.0022980457
0.0023437063
0.0023880836
0.002431372
0.0024759005
0.0025189283
0.0025625711
0.002606691
0.0026535176
0.0027003127
0.0027490113
0.0027994568
0.0028537394
0.0029105061
0.002972
0.0030407507
0.0031184952
0.0031945159
0.0032628572
0.0033290528
0.003397676
0.0034686879
0.0035441061
0.0036209535
0.0036995638
0.0037771604
0.0038555914
0.0039314295
0.0040074409
0.0040821983
0.0041588241
0.0042370691
0.0043194273
0.0044025598
0.0044878905
0.0045752796
0.0046669386
0.0047604072
0.0048576897
0.0049584968
0.0050658487
0.0051759256
0.0052926595
0.0054160046
0.0055506566
0.005687413
0.0058296237
0.0059743075
0.0061278909
0.0062841359
0.0064503896
0.0066267548
0.0068207373
0.0070168735
0.0072186996
0.0074193672
0.0076272713
0.0078317898
0.0080419115
0.0082527371
0.0084779934
0.0087051994
0.0089501268
0.0092179466
0.0095256608
0.009847114
0.010221437
0.010666621
0.011233426
0.011949689
0.013068228
0.015041453
0.018746235
0.024261682
0.034322745
0.054383219
0.099222538
0.17154464
0.32697682
0.48817573
0.66338662
0.79430529
0.91752172
1.0810905
1.2671591
1.5580548
1.9747671
2.2501516
2.451902
2.6802722
2.8780698
3.2079662
3.8970937
4.8262266
5.8945738
7.0301994
7.8354613
9.4010643
10.177129
11.200423
12.808204
15.776955
18.955751
22.280474
26.098173
30.588364
33.703237
32.022493
29.641863
25.034945
19.263484
13.97265
7.8105546
4.1502575
1.7790185
0.67120958
0.19997109
0.099810526
0.072061156
0.058934688
0.048831557
0.040191401
0.033077824
0.027272131
0.021857796
0.018375376
0.016304655
0.014296564
0.012733695
0.01155695
0.010612451
0.0096494874
0.0085340581
0.0074793322
0.0064357636
0.0052141831
0.0044872795
0.0037001342
0.0029589296
0.0024325543
0.0019382169
0.0015908901
0.0012915138
0.0010594648
0.0008719013
0.00072777195
0.00060580937
0.00051528057
0.0004258456
0.00034723389
0.00029465202
0.00023599966
0.00019362322
0.00015318159
0.00012534272
9.8253999e-05
7.5965304e-05
5.9242947e-05
4.561261e-05
3.4445901e-05
2.5189485e-05
1.7734858e-05
1.1602683e-05
5.4366107e-06
2.046965e-08
2.4851097e-06
3.9955487e-06
6.7744101e-06
1.1247625e-05
1.6582723e-05
2.3405137e-05
3.0344377e-05
3.9394871e-05
5.0109528e-05
6.2368013e-05
7.5792473e-05
8.9767196e-05
0.00010591963
0.00012305127
0.0001403817
0.00015764694
0.00017498352
0.00019265924
0.00021042027
0.00022892623
0.00024766228
0.00026731624
0.00028553271
0.00030290625
0.00031985683
0.00033709243
0.00035336137
0.00036974676
0.00038644052
0.00040401713
0.00042054235
0.00043682235
0.00045291663
0.00046951667
0.00048526432
0.00050109549
0.00051700036
0.0005335611
0.00054931951
0.00056505243
0.00058075588
0.00059705564
0.00061276538
0.00062872523
0.00064497219
0.00066213739
0.00067900668
0.00069645227
0.00071452395
0.00073396083
0.00075336396
0.00077338441
0.00079258968
0.00081164906
0.00082979023
0.00084797627
0.00086584959
0.00088440595
0.00090322176
0.00092346462
0.0009447866
0.0009680037
0.00099188709
0.0010169726
0.0010414145
0.0010658073
0.0010890029
0.0011123383
0.0011356547
0.0011599628
0.0011834013
0.0012070671
0.0012307433
0.0012557537
0.0012809324
0.0013078539
0.0013366459
0.0013678226
0.0013984252
0.0014290326
0.0014599254
0.0014921003
0.0015232226
0.0015542501
0.0015853932
0.0016177839
0.001648623
0.0016789389
0.0017088553
0.001739819
0.0017698162
0.00180015
0.0018309315
0.0018633105
0.0018947182
0.0019260829
0.0019574223
0.001990074
0.0020226535
0.0020563869
0.0020911058
0.0021281138
0.0021661936
0.0022070668
0.0022509133
0.002298048
0.0023437093
0.0023880812
0.0024313769
0.0024758965
0.0025189297
0.0025625676
0.0026066964
0.0026535159
0.0027003169
0.002749013
0.0027994669
0.0028537484
0.0029105217
0.0029720184
0.0030407764
0.0031185194
0.0031945253
0.003262858
0.0033290608
0.0033976814
0.0034687022
0.0035441116
0.0036209608
0.0036995566
0.0037771547
0.003855562
0.0039313984
0.004007392
0.0040821494
0.0041587639
0.0042370177
0.0043193616
0.0044024895
0.0044878092
0.004575206
0.0046668545
0.0047603232
0.0048575999
0.004958425
0.005065769
0.005175854
0.005292587
0.0054159677
0.0055505981
0.0056873507
0.0058295312
0.0059742348
0.0061277914
0.0062840447
0.0064502919
0.0066267179
0.0068206579
0.0070167757
0.0072185327
0.0074192115
0.0076270489
0.007831552
0.008041616
0.0082525083
0.0084777642
0.0087051098
0.0089501477
0.0092180161
0.0095254833
0.0098470263
0.010220803
0.010665135
0.011230417
0.011943752
0.013054684
0.015007581
0.018662748
0.024162778
0.034088121
0.053958907
0.098281549
0.17019099
0.32407533
0.48563428
0.6590673
0.7905451
0.91099356
1.0746711
1.2570918
1.5465534
1.9573884
2.2325104
2.4347099
2.6583211
2.8497305
3.1763246
3.8600342
4.7721056
5.82918
6.9696608
7.7500981
9.2988435
10.054168
11.045827
12.608625
15.481896
18.492423
21.65735
25.339922
29.546115
32.35926
30.673824
28.34347
24.139125
18.711033
13.54459
7.6876611
4.0657676
1.7723797
0.66260443
0.19911664
0.099721922
0.072078888
0.058958712
0.048842515
0.040193291
0.033076403
0.027271386
0.0218589
0.018375964
0.016303674
0.014293378
0.012728579
0.01155007
0.010604052
0.0096405247
0.0085262185
0.007465448
0.0064115986
0.0051911597
0.0044560956
0.0036715269
0.0029415026
0.002413986
0.0019262079
0.0015806782
0.0012833014
0.0010543904
0.00086856408
0.00072485632
0.00060372029
0.00051296369
0.00042404232
0.00034605211
0.00029343305
0.00023504836
0.00019289533
0.00015268632
0.00012487104
9.7815835e-05
7.5694505e-05
5.9001332e-05
4.5378894e-05
3.4214453e-05
2.4959891e-05
1.7498085e-05
1.1342416e-05
5.11341e-06
5.4202662e-08
2.4757112e-06
4.0265061e-06
6.8384481e-06
1.1332321e-05
1.6679658e-05
2.3508148e-05
3.0491821e-05
3.9584322e-05
5.0305108e-05
6.2582695e-05
7.6001257e-05
8.9984624e-05
0.00010610143
0.00012320355
0.00014050715
0.00015774796
0.00017506549
0.00019271792
0.00021046335
0.00022894811
0.00024766014
0.00026728406
0.00028550721
0.00030288086
0.00031983532
0.00033706622
0.00035334554
0.00036972901
0.00038642056
0.00040399058
0.00042052621
0.00043680632
0.0004529021
0.00046949832
0.00048525528
0.00050108543
0.0005169913
0.0005335481
0.00054931544
0.00056504814
0.00058075336
0.00059704936
0.00061276684
0.00062872502
0.00064497264
0.00066213202
0.00067900777
0.00069645021
0.00071452175
0.00073395088
0.00075335836
0.00077337305
0.00079258571
0.00081164526
0.00082979408
0.00084797836
0.00086585672
0.00088440993
0.00090322942
0.00092346486
0.0009447868
0.00096799507
0.00099188071
0.001016958
0.0010414071
0.0010657983
0.0010890032
0.001112336
0.0011356572
0.0011599593
0.0011834064
0.0012070686
0.0012307504
0.0012557547
0.0012809401
0.0013078559
0.0013366483
0.0013678141
0.0013984238
0.0014290283
0.0014599249
0.0014920917
0.0015232211
0.0015542454
0.0015853939
0.0016177752
0.0016486219
0.0016789345
0.001708858
0.0017398146
0.0017698191
0.0018001491
0.0018309372
0.0018633076
0.0018947216
0.0019260823
0.0019574281
0.0019900742
0.0020226599
0.0020563894
0.0020911153
0.0021281188
0.0021662058
0.002207077
0.0022509311
0.0022980511
0.0023437143
0.0023880791
0.0024313852
0.0024758925
0.0025189343
0.0025625657
0.0026067069
0.0026535163
0.0027003263
0.0027490188
0.0027994841
0.0028537629
0.0029105453
0.002972045
0.0030408099
0.003118548
0.0031945359
0.0032628589
0.0033290728
0.0033976895
0.0034687222
0.003544118
0.0036209702
0.0036995475
0.0037771498
0.0038555271
0.0039313649
0.0040073371
0.004082098
0.0041586986
0.0042369651
0.0043192906
0.0044024159
0.0044877227
0.0045751305
0.0046667658
0.0047602377
0.0048575069
0.0049583552
0.0050656879
0.0051757873
0.0052925175
0.0054159422
0.0055505412
0.0056872966
0.0058294387
0.0059741722
0.006127695
0.0062839681
0.0064502052
0.0066267055
0.0068205852
0.0070166926
0.0072183629
0.0074190622
0.0076268185
0.0078313154
0.0080413066
0.0082522838
0.0084775362
0.0087050454
0.0089501821
0.0092181021
0.0095252446
0.0098468967
0.010220002
0.01066336
0.011226815
0.011936823
0.013038824
0.014967943
0.018557587
0.024045945
0.03381126
0.053457251
0.097179167
0.16857343
0.3207115
0.48259188
0.65407438
0.7862853
0.90363969
1.0673898
1.2455641
1.5333633
1.9372342
2.2126831
2.4154615
2.6334395
2.8184625
3.1417597
3.8191218
4.7123538
5.7566095
6.9003319
7.6563258
9.1880815
9.9243292
10.88407
12.397717
15.170719
18.022716
21.05933
24.587292
28.520238
31.093459
29.489893
27.17013
23.282446
18.189509
13.138856
7.5697285
3.9879975
1.7670579
0.6523403
0.19833565
0.09965439
0.072108478
0.058988359
0.04885537
0.040195526
0.033074771
0.027270457
0.021860162
0.018376573
0.016302623
0.014290084
0.012723272
0.011542871
0.01059526
0.0096312285
0.0085182123
0.0074508442
0.006386853
0.0051685783
0.0044239987
0.0036424488
0.0029237788
0.0023957901
0.0019140457
0.0015705767
0.0012755276
0.0010492597
0.0008652076
0.00072200466
0.00060168916
0.0005106363
0.00042232094
0.00034490392
0.00029219643
0.00023412412
0.00019213589
0.00015219395
0.00012437257
9.7378382e-05
7.5416714e-05
5.8749719e-05
4.5135118e-05
3.3973276e-05
2.4722571e-05
1.7255437e-05
1.1078642e-05
4.7977145e-06
1.0220847e-07
2.4670345e-06
4.0599615e-06
6.9061703e-06
1.1418558e-05
1.6782756e-05
2.3613999e-05
3.0650531e-05
3.9780849e-05
5.0511177e-05
6.2806697e-05
7.6220706e-05
9.0211944e-05
0.00010628942
0.00012335835
0.00014063211
0.00015784595
0.000175144
0.00019277337
0.00021050543
0.00022897014
0.00024765786
0.00026724877
0.0002854796
0.00030285315
0.00031981299
0.00033703753
0.00035332895
0.00036971005
0.00038640043
0.00040396128
0.00042050869
0.00043678839
0.00045288693
0.00046947767
0.00048524537
0.00050107397
0.00051698206
0.00053353324
0.00054931081
0.00056504284
0.00058075096
0.00059704187
0.00061276836
0.00062872446
0.00064497384
0.00066212603
0.0006790096
0.00069644845
0.0007145211
0.00073394083
0.0007533538
0.00077336063
0.000792582
0.00081164095
0.00082979893
0.00084798055
0.00086586549
0.00088441498
0.00090323962
0.00092346669
0.00094478988
0.00096798774
0.00099187659
0.0010169433
0.0010414007
0.001065789
0.0010890048
0.0011123339
0.0011356615
0.0011599557
0.001183413
0.0012070706
0.0012307597
0.0012557564
0.0012809503
0.0013078596
0.0013366531
0.0013678053
0.001398423
0.0014290239
0.0014599254
0.0014920817
0.0015232195
0.0015542398
0.0015853953
0.0016177644
0.0016486203
0.0016789288
0.0017088612
0.0017398088
0.0017698226
0.0018001479
0.0018309444
0.001863304
0.0018947258
0.0019260817
0.0019574358
0.0019900749
0.0020226685
0.0020563933
0.0020911281
0.0021281258
0.0021662218
0.0022070902
0.0022509528
0.0022980536
0.0023437198
0.0023880764
0.0024313954
0.0024758876
0.0025189408
0.0025625642
0.0026067207
0.0026535172
0.0027003391
0.0027490265
0.0027995059
0.0028537803
0.0029105735
0.0029720759
0.0030408473
0.0031185772
0.0031945436
0.0032628562
0.0033290847
0.0033976962
0.0034687432
0.003544121
0.0036209771
0.0036995324
0.003777141
0.0038554831
0.0039313251
0.0040072738
0.0040820415
0.0041586261
0.0042369084
0.004319212
0.0044023371
0.0044876291
0.0045750507
0.0046666705
0.0047601485
0.0048574083
0.0049582841
0.0050656018
0.0051757211
0.0052924457
0.0054159205
0.0055504783
0.0056872421
0.0058293385
0.0059741102
0.0061275928
0.0062838961
0.0064501188
0.0066267027
0.0068205053
0.0070166105
0.0072181825
0.0074189127
0.0076265741
0.0078310768
0.0080409827
0.0082520587
0.0084773067
0.0087049977
0.008950229
0.0092182205
0.009525001
0.0098467939
0.010219191
0.010661554
0.011223026
0.011929697
0.013022115
0.014926237
0.018439056
0.023921927
0.033518894
0.052925431
0.096008057
0.16684541
0.3171991
0.47933723
0.64886084
0.78190288
0.8962033
1.0597153
1.2335829
1.5196171
1.9158764
2.1925258
2.3958475
2.6077695
2.786632
3.1071964
3.7775961
4.6524027
5.6834496
6.8278356
7.5639352
9.078449
9.7977007
10.728187
12.191708
14.867535
17.584509
20.540574
23.914962
27.61301
30.011696
28.56159
26.216369
22.54398
17.748393
12.787169
7.4629196
3.9210597
1.7625858
0.6408203
0.19758013
0.099589699
0.072140867
0.059019127
0.04886851
0.040197702
0.03307301
0.027269429
0.021861497
0.018377177
0.01630154
0.014286811
0.012718008
0.011535716
0.010586546
0.0096220789
0.0085105219
0.0074364623
0.0063627407
0.0051479662
0.0043926283
0.0036145915
0.0029065568
0.0023787061
0.0019024605
0.0015611511
0.0012685322
0.0010444006
0.0008620328
0.00071936702
0.00059979724
0.00050843392
0.00042075986
0.00034384947
0.00029100164
0.00023327243
0.00019138378
0.00015172713
0.00012387163
9.6961271e-05
7.5145472e-05
5.8500069e-05
4.4891986e-05
3.3732477e-05
2.4487027e-05
1.7015838e-05
1.0820376e-05
4.5032828e-06
1.6020589e-07
2.459297e-06
4.094067e-06
6.9740746e-06
1.1502059e-05
1.6886898e-05
2.3717981e-05
3.0813798e-05
3.9977502e-05
5.0720758e-05
6.3032849e-05
7.6443348e-05
9.0441865e-05
0.00010647637
0.00012350912
0.00014075041
0.00015793732
0.0001752171
0.0001928251
0.00021054592
0.00022899191
0.00024765561
0.0002672119
0.000285451
0.00030282422
0.00031979065
0.00033700751
0.0003533122
0.0003696906
0.0003863809
0.00040393017
0.00042049037
0.00043676921
0.00045287177
0.00046945548
0.00048523502
0.00050106164
0.0005169731
0.00053351714
0.00054930593
0.00056503686
0.00058074896
0.0005970336
0.00061277012
0.00062872377
0.00064497598
0.00066211981
0.0006790123
0.00069644724
0.00071452212
0.00073393107
0.00075335044
0.00077334753
0.00079257864
0.00081163625
0.00082980464
0.00084798287
0.00086587568
0.0008844211
0.00090325206
0.00092347009
0.00094479567
0.00096798216
0.00099187506
0.0010169288
0.0010413957
0.0010657797
0.0010890077
0.0011123321
0.0011356673
0.0011599521
0.0011834208
0.001207073
0.0012307709
0.0012557591
0.0012809628
0.0013078648
0.0013366603
0.0013677963
0.001398423
0.0014290195
0.001459927
0.0014920707
0.0015232181
0.0015542335
0.0015853972
0.0016177518
0.0016486182
0.0016789218
0.0017088649
0.0017398019
0.0017698264
0.0018001464
0.0018309527
0.0018632998
0.0018947309
0.0019260813
0.0019574451
0.0019900762
0.0020226792
0.0020563984
0.0020911436
0.0021281344
0.0021662412
0.0022071059
0.0022509776
0.0022980557
0.0023437257
0.0023880729
0.002431407
0.0024758817
0.0025189487
0.0025625631
0.0026067373
0.0026535185
0.0027003548
0.0027490361
0.0027995316
0.0028538
0.0029106054
0.00297211
0.003040887
0.003118605
0.0031945477
0.0032628495
0.0033290958
0.003397701
0.0034687644
0.0035441201
0.0036209809
0.0036995111
0.003777128
0.0038554307
0.0039312796
0.0040072029
0.0040819805
0.0041585477
0.0042368483
0.0043191274
0.0044022543
0.0044875302
0.0045749677
0.0046665703
0.0047600571
0.004857306
0.0049582126
0.0050655124
0.0051756565
0.005292373
0.0054159024
0.0055504104
0.0056871876
0.0058292325
0.0059740491
0.006127486
0.0062838283
0.006450033
0.0066267066
0.0068204174
0.0070165283
0.0072179924
0.0074187649
0.0076263241
0.0078308411
0.008040652
0.0082518385
0.0084770789
0.0087049688
0.0089502878
0.0092183666
0.0095247614
0.0098467179
0.010218394
0.010659769
0.011219145
0.011922636
0.01300512
0.014883642
0.018318596
0.02379441
0.033224084
0.052383348
0.094809452
0.16508546
0.31368148
0.47599884
0.64367205
0.77752844
0.88905024
1.0518706
1.2215769
1.5058761
1.8942998
2.1729589
2.3768946
2.5826182
2.7555597
3.0736752
3.7370673
4.5947804
5.6122618
6.7554425
7.4783346
8.9740612
9.6784111
10.583592
11.997861
14.585888
17.189872
20.100993
23.345417
26.843824
29.133506
27.869609
25.480033
21.940012
17.394403
12.495611
7.3705739
3.8661866
1.7588737
0.62871833
0.19685623
0.099530554
0.072174326
0.059049739
0.048881453
0.040199725
0.033071196
0.02726834
0.021862867
0.018377766
0.01630043
0.014283544
0.012712764
0.011528559
0.010577845
0.0096129779
0.0085030508
0.0074223919
0.0063391845
0.0051293002
0.0043623685
0.0035881418
0.0028896096
0.0023624727
0.0018914328
0.0015522571
0.0012621028
0.0010397945
0.00085902362
0.00071687787
0.00059799049
0.00050635841
0.0004192934
0.00034286957
0.00028983049
0.00023246595
0.00019063688
0.00015127679
0.00012336694
9.655736e-05
7.4879211e-05
5.8251471e-05
4.4649413e-05
3.3491862e-05
2.4252548e-05
1.6779355e-05
1.0567141e-05
4.2302008e-06
2.2488496e-07
2.4530561e-06
4.1286678e-06
7.0420129e-06
1.1583196e-05
1.6991466e-05
2.3820637e-05
3.0980702e-05
4.0174973e-05
5.0933866e-05
6.3262171e-05
7.6670756e-05
9.067525e-05
0.00010666197
0.00012365558
0.00014086285
0.00015802385
0.00017528682
0.00019287482
0.00021058549
0.00022901381
0.00024765336
0.00026717371
0.00028542124
0.00030279398
0.00031976804
0.00033697613
0.00035329506
0.00036967054
0.00038636176
0.00040389736
0.00042047112
0.00043674874
0.00045285642
0.00046943178
0.00048522409
0.0005010484
0.00051696423
0.00053349984
0.00054930068
0.00056503019
0.0005807472
0.00059702458
0.00061277197
0.00062872292
0.00064497884
0.00066211337
0.00067901567
0.00069644644
0.00071452454
0.00073392152
0.00075334802
0.00077333375
0.00079257545
0.00081163115
0.00082981098
0.00084798524
0.00086588704
0.0008844281
0.00090326646
0.00092347482
0.0009448037
0.00096797814
0.00099187573
0.0010169146
0.0010413916
0.0010657702
0.0010890115
0.0011123305
0.0011356745
0.0011599485
0.0011834298
0.0012070759
0.0012307838
0.0012557625
0.0012809775
0.0013078716
0.0013366695
0.0013677873
0.0013984236
0.0014290152
0.0014599294
0.0014920587
0.0015232166
0.0015542266
0.0015853995
0.0016177377
0.0016486157
0.0016789137
0.0017088688
0.001739794
0.0017698306
0.0018001447
0.0018309621
0.0018632951
0.0018947366
0.0019260811
0.0019574558
0.001990078
0.0020226917
0.0020564048
0.0020911618
0.0021281446
0.0021662636
0.0022071241
0.0022510053
0.0022980574
0.002343732
0.0023880691
0.0024314199
0.0024758753
0.002518958
0.0025625624
0.0026067564
0.0026535204
0.0027003732
0.0027490475
0.002799561
0.0028538219
0.0029106407
0.0029721472
0.0030409281
0.003118631
0.0031945486
0.0032628395
0.0033291063
0.0033977043
0.0034687856
0.0035441158
0.0036209818
0.0036994843
0.0037771109
0.0038553707
0.0039312286
0.0040071253
0.0040819151
0.0041584637
0.0042367846
0.0043190371
0.0044021675
0.0044874263
0.0045748816
0.0046664653
0.0047599631
0.0048571999
0.0049581402
0.0050654197
0.0051755927
0.0052922991
0.0054158872
0.0055503379
0.0056871328
0.0058291211
0.0059739882
0.0061273749
0.0062837637
0.0064499473
0.0066267159
0.0068203225
0.007016445
0.0072177928
0.0074186162
0.0076260701
0.0078306086
0.0080403163
0.0082516245
0.0084768539
0.0087049611
0.008950358
0.0092185317
0.0095245268
0.0098466399
0.010217606
0.010657989
0.011215154
0.011915524
0.012987911
0.014840547
0.018205985
0.023663081
0.032930858
0.051839043
0.093597381
0.16331372
0.31018848
0.47263554
0.63858807
0.77317244
0.88223273
1.0439529
1.209654
1.4921737
1.8730256
2.1541884
2.3589013
2.5587131
2.7257646
3.0410611
3.6980953
4.5397157
5.5435285
6.6850726
7.3996115
8.8747481
9.5657331
10.451426
11.815835
14.325682
16.833148
19.711246
22.85877
26.186818
28.411784
27.334268
24.891389
21.433468
17.097046
12.246556
7.2898141
3.8205891
1.7556086
0.61664013
0.19616933
0.0994765
0.07220784
0.059080125
0.048894238
0.040201582
0.033069259
0.027267182
0.021864252
0.018378332
0.016299291
0.014280271
0.012707507
0.01152137
0.010569109
0.0096038489
0.0084957069
0.0074085001
0.0063159389
0.0051121917
0.0043332182
0.0035628699
0.0028727275
0.0023468678
0.0018808737
0.0015437452
0.0012561308
0.0010354145
0.00085611776
0.00071446715
0.00059622622
0.00050439328
0.0004178777
0.00034193625
0.00028866169
0.00023168567
0.00018989008
0.00015083429
0.00012285571
9.6161235e-05
7.4615402e-05
5.8002703e-05
4.4405979e-05
3.3249904e-05
2.4017893e-05
1.6545053e-05
1.0317802e-05
3.9771064e-06
2.934246e-07
2.4482981e-06
4.1632655e-06
7.1103063e-06
1.1662861e-05
1.7096485e-05
2.3922969e-05
3.1150969e-05
4.0374482e-05
5.1149938e-05
6.3495995e-05
7.6903579e-05
9.0913019e-05
0.00010684674
0.00012379847
0.0001409708
0.00015810762
0.00017535467
0.00019292377
0.00021062473
0.00022903501
0.00024765107
0.00026713445
0.0002853903
0.0003027625
0.00031974506
0.00033694351
0.00035327743
0.00036964986
0.00038634289
0.00040386304
0.00042045093
0.00043672707
0.00045284082
0.00046940674
0.00048521258
0.00050103432
0.00051695538
0.0005334815
0.00054929505
0.00056502291
0.00058074563
0.00059701495
0.00061277388
0.00062872193
0.00064498234
0.00066210678
0.00067901962
0.00069644605
0.00071452815
0.0007339122
0.00075334635
0.0007733194
0.00079257236
0.00081162572
0.00082981786
0.00084798774
0.00086589943
0.00088443591
0.00090328263
0.00092348074
0.00094481366
0.00096797555
0.0009918783
0.0010169006
0.0010413883
0.0010657607
0.001089016
0.0011123291
0.0011356828
0.001159945
0.0011834398
0.0012070794
0.0012307983
0.0012557668
0.0012809939
0.0013078797
0.0013366805
0.0013677784
0.0013984248
0.001429011
0.0014599325
0.0014920461
0.0015232151
0.0015542192
0.0015854022
0.0016177222
0.0016486126
0.0016789048
0.0017088729
0.0017397853
0.001769835
0.0018001429
0.0018309724
0.0018632901
0.001894743
0.0019260811
0.0019574678
0.0019900804
0.0020227058
0.0020564124
0.0020911821
0.0021281564
0.0021662889
0.0022071446
0.0022510354
0.002298059
0.0023437386
0.0023880649
0.0024314338
0.0024758684
0.0025189685
0.0025625622
0.0026067775
0.0026535229
0.0027003938
0.0027490605
0.0027995935
0.0028538459
0.002910679
0.002972187
0.00304097
0.0031186549
0.0031945465
0.0032628263
0.0033291159
0.0033977061
0.0034688066
0.0035441084
0.0036209798
0.0036994526
0.0037770898
0.0038553039
0.0039311723
0.0040070413
0.0040818454
0.0041583744
0.0042367174
0.0043189415
0.0044020765
0.0044873175
0.004574792
0.0046663557
0.0047598663
0.0048570901
0.0049580665
0.0050653237
0.005175529
0.0052922237
0.0054158737
0.0055502611
0.0056870767
0.0058290045
0.0059739265
0.0061272592
0.0062837007
0.006449861
0.0066267287
0.0068202209
0.0070163592
0.0072175837
0.0074184652
0.0076258091
0.0078303788
0.0080399772
0.0082514167
0.0084766315
0.0087049709
0.0089504388
0.0092187077
0.0095242911
0.0098465486
0.010216807
0.010656184
0.011211029
0.011908319
0.012970628
0.014797033
0.01810418
0.023527028
0.032640216
0.051293254
0.092373564
0.161519
0.30669428
0.46931112
0.63365779
0.76882702
0.87575082
1.0360986
1.1978976
1.4784967
1.8524572
2.1360923
2.3419069
2.5362534
2.6973407
3.0095329
3.660681
4.4870301
5.4772585
6.6178461
7.3260766
8.7785481
9.4605002
10.330124
11.644947
14.084873
16.510973
19.354641
22.430304
25.613378
27.805916
26.889793
24.394018
20.99387
16.829973
12.025715
7.2182104
3.782475
1.7524169
0.60546252
0.1955368
0.099426929
0.072241151
0.059110203
0.048906882
0.040203253
0.03306716
0.027265941
0.021865631
0.018378876
0.01629812
0.014276979
0.0127022
0.01151412
0.010560288
0.0095946309
0.0084883855
0.0073946904
0.0062928673
0.005096146
0.0043051965
0.0035384614
0.0028558093
0.0023315226
0.0018706379
0.0015354571
0.0012505109
0.0010312579
0.00085326709
0.00071209058
0.00059447656
0.0005025114
0.0004164726
0.00034102471
0.00028748537
0.0002309124
0.00018913857
0.00015039235
0.00012233677
9.5768304e-05
7.4352178e-05
5.7752646e-05
4.4160943e-05
3.300614e-05
2.3782301e-05
1.6312377e-05
1.0071532e-05
3.7428469e-06
3.6370147e-07
2.4452759e-06
4.1979259e-06
7.1791639e-06
1.1741768e-05
1.7201918e-05
2.4026083e-05
3.1324065e-05
4.0576473e-05
5.1369623e-05
6.3735369e-05
7.7142244e-05
9.1155318e-05
0.00010703077
0.00012393816
0.00014107638
0.0001581899
0.00017542181
0.00019297252
0.00021066395
0.00022905339
0.00024764873
0.00026709428
0.00028535817
0.00030272985
0.0003197216
0.00033690977
0.00035325923
0.00036962859
0.00038632413
0.00040382737
0.00042042978
0.00043670429
0.00045282489
0.0004693805
0.00048520045
0.00050101946
0.00051694644
0.00053346224
0.00054928902
0.00056501509
0.00058074416
0.0005970048
0.0006127758
0.00062872085
0.00064498634
0.00066210011
0.00067902405
0.00069644606
0.00071453277
0.00073390312
0.00075334529
0.00077330459
0.00079256931
0.00081162004
0.00082982519
0.00084799042
0.00086591275
0.00088444449
0.00090330027
0.00092348778
0.00094482535
0.00096797428
0.00099188244
0.0010168869
0.0010413855
0.001065751
0.0010890212
0.001112328
0.001135692
0.0011599417
0.0011834507
0.0012070833
0.0012308141
0.001255772
0.001281012
0.0013078892
0.001336693
0.0013677696
0.0013984263
0.0014290069
0.0014599361
0.0014920329
0.0015232134
0.0015542113
0.001585405
0.0016177057