/*--------------------------------*- C++ -*----------------------------------*\
| =========                 |                                                 |
| \\      /  F ield         | OpenFOAM: The Open Source CFD Toolbox           |
|  \\    /   O peration     | Version:  2.4.0                                 |
|   \\  /    A nd           | Web:      www.OpenFOAM.org                      |
|    \\/     M anipulation  |                                                 |
\*---------------------------------------------------------------------------*/
FoamFile
{
    version     2.0;
    format      ascii;
    class       volScalarField;
    location    "250";
    object      nut;
}
// * * * * * * * * * * * * * * * * * * * * * * * * * * * * * * * * * * * * * //

dimensions      [0 2 -1 0 0 0 0];

internalField   nonuniform List<scalar> 
32000
(
1.239302e-08
4.5782723e-09
8.6519022e-09
3.3801281e-09
2.1460466e-09
2.268249e-10
4.1709186e-10
2.5062855e-10
2.1509119e-10
1.4725773e-10
1.2323154e-10
1.0552519e-10
9.3132049e-11
8.2692676e-11
7.2983765e-11
6.3999915e-11
5.5836205e-11
4.9112548e-11
4.2668238e-11
3.6096926e-11
2.992336e-11
3.4091546e-11
4.1106207e-11
4.7990007e-11
5.4647488e-11
6.0814473e-11
6.6252242e-11
7.0441761e-11
7.3303433e-11
7.4597661e-11
7.4373065e-11
7.3117079e-11
7.1924694e-11
7.1855717e-11
7.3261459e-11
7.5881823e-11
7.9310918e-11
8.3228368e-11
8.7444378e-11
9.1815767e-11
9.6244965e-11
1.0046542e-10
1.041081e-10
1.0681255e-10
1.0860536e-10
1.0926376e-10
1.1110263e-10
1.1034197e-10
1.0292411e-10
9.1977944e-11
7.7482405e-11
6.0706476e-11
4.2612085e-11
5.4011697e-11
7.1240732e-11
8.6131485e-11
9.7730005e-11
1.0524426e-10
1.0822831e-10
1.0686542e-10
1.0186125e-10
9.3730376e-11
8.3164681e-11
7.1393445e-11
5.9610039e-11
4.8555191e-11
3.8965775e-11
4.683126e-11
5.6456103e-11
6.7005494e-11
7.9291207e-11
9.4073379e-11
1.1196988e-10
1.3336935e-10
1.5837475e-10
1.8675178e-10
2.1779274e-10
2.5013973e-10
2.8154507e-10
3.0850529e-10
3.2621787e-10
3.2784921e-10
3.0768654e-10
2.602087e-10
1.8753977e-10
9.1001232e-11
8.8249502e-11
1.2973682e-10
1.2329079e-10
1.2081182e-10
1.295475e-10
1.4425675e-10
1.6163264e-10
1.777133e-10
1.9523506e-10
2.1661902e-10
2.4471082e-10
2.8068837e-10
3.2476475e-10
3.7616004e-10
4.3369476e-10
4.959109e-10
5.6122316e-10
6.2809482e-10
6.9509154e-10
7.6086779e-10
8.2421251e-10
8.8399793e-10
9.3904076e-10
9.8812147e-10
1.0299881e-09
1.0631497e-09
1.0858174e-09
1.0958337e-09
1.0903268e-09
1.065815e-09
1.0183672e-09
9.4296817e-10
8.3495094e-10
6.8800152e-10
5.0504345e-10
3.0239377e-10
9.0277812e-11
2.4446659e-10
5.1538411e-10
7.8387469e-10
1.0208369e-09
1.1929632e-09
1.2723133e-09
1.2470151e-09
1.1206627e-09
9.2165138e-10
6.9579929e-10
4.9000467e-10
3.3764451e-10
2.5028804e-10
2.0614563e-10
1.489684e-10
6.5796875e-11
2.3388577e-10
3.6218206e-10
3.9018343e-10
3.1956033e-10
1.8242643e-10
6.1200714e-11
2.0628256e-10
3.1602063e-10
3.8137254e-10
4.1437203e-10
4.4525163e-10
4.8200219e-10
5.2129704e-10
5.3521347e-10
5.1770993e-10
4.6588655e-10
3.9043542e-10
3.2347222e-10
2.496667e-10
1.7797047e-10
1.0763273e-10
6.0411337e-11
1.2231272e-10
1.8118088e-10
2.3604735e-10
2.8775715e-10
3.4121113e-10
3.9568853e-10
4.4697121e-10
4.9376381e-10
5.351647e-10
5.7066236e-10
6.001151e-10
6.2357464e-10
6.3861224e-10
6.4053882e-10
6.2765376e-10
6.0339419e-10
5.7253341e-10
5.350553e-10
4.9251517e-10
4.4607568e-10
3.9632848e-10
3.4377512e-10
2.9004539e-10
2.3390552e-10
1.7155847e-10
8.710317e-11
8.6366883e-11
2.3680036e-10
4.3430579e-10
7.1828912e-10
1.0498943e-09
1.6419153e-09
1.5670589e-09
2.7866734e-09
1.7940153e-09
4.2845594e-09
4.4383182e-09
9.3929724e-09
4.7334481e-09
6.8120016e-09
4.1024277e-09
5.4452507e-09
2.8849137e-09
2.0181264e-09
2.7802844e-10
5.0638628e-10
4.3874765e-10
2.9956192e-10
2.2666226e-10
1.8357863e-10
1.5793583e-10
1.3745088e-10
1.2026927e-10
1.0390531e-10
8.863125e-11
7.4665945e-11
6.3112896e-11
5.2354647e-11
4.1745035e-11
3.1930753e-11
3.6895971e-11
4.5553205e-11
5.3904061e-11
6.17968e-11
6.8884675e-11
7.4833914e-11
7.8927149e-11
8.1069895e-11
8.1000565e-11
7.8833201e-11
7.5248023e-11
7.1675868e-11
6.9452006e-11
6.8991222e-11
6.9973325e-11
7.1939804e-11
7.4513155e-11
7.7454009e-11
8.0624643e-11
8.3968675e-11
8.7261281e-11
9.0188041e-11
9.2472609e-11
9.4253173e-11
9.5459736e-11
9.8569951e-11
9.8929558e-11
9.2382741e-11
8.2288537e-11
6.8768078e-11
5.31126e-11
3.6391603e-11
4.8386271e-11
6.5519706e-11
8.0283179e-11
9.1748811e-11
9.9176335e-11
1.0216631e-10
1.0092206e-10
9.6139593e-11
8.834945e-11
7.8257778e-11
6.7063431e-11
5.591426e-11
4.5539427e-11
3.7339814e-11
4.5066124e-11
5.432519e-11
6.4429175e-11
7.6119449e-11
9.0096858e-11
1.0693048e-10
1.2697725e-10
1.5033233e-10
1.7678474e-10
2.0569107e-10
2.358116e-10
2.6508052e-10
2.9027397e-10
3.0693948e-10
3.0875455e-10
2.9038123e-10
2.4676452e-10
1.7978709e-10
9.1105808e-11
8.5842983e-11
1.2638965e-10
1.2202607e-10
1.2009712e-10
1.2826175e-10
1.4173791e-10
1.5774517e-10
1.7255973e-10
1.88717e-10
2.0845529e-10
2.3442204e-10
2.677177e-10
3.0854199e-10
3.5617022e-10
4.0951794e-10
4.6724483e-10
5.2787934e-10
5.8999956e-10
6.5227933e-10
7.1346956e-10
7.7244347e-10
8.2814892e-10
8.7948295e-10
9.2531008e-10
9.6445844e-10
9.955261e-10
1.0168242e-09
1.0262961e-09
1.0211624e-09
9.9809634e-10
9.5328928e-10
8.8192136e-10
7.7944422e-10
6.3998732e-10
4.6709246e-10
2.7601227e-10
8.9892188e-11
2.447768e-10
5.0101917e-10
7.5421227e-10
9.756952e-10
1.1339061e-09
1.2033166e-09
1.1741942e-09
1.0514206e-09
8.6294064e-10
6.5185121e-10
4.611361e-10
3.2076564e-10
2.4031969e-10
1.9837127e-10
1.4188284e-10
7.230824e-11
2.296813e-10
3.4850057e-10
3.7206746e-10
3.0212147e-10
1.696971e-10
6.3862873e-11
2.0149767e-10
3.0622703e-10
3.6906738e-10
4.0186045e-10
4.3343145e-10
4.7064e-10
5.0995323e-10
5.2414637e-10
5.0902828e-10
4.5931661e-10
3.8423601e-10
3.1718662e-10
2.4222779e-10
1.6836221e-10
9.4937099e-11
5.1734939e-11
1.2183316e-10
1.9147137e-10
2.5940971e-10
3.2642072e-10
3.9796334e-10
4.7272666e-10
5.451759e-10
6.1319379e-10
6.7511189e-10
7.2978161e-10
7.7656913e-10
8.1515871e-10
8.4208177e-10
8.513918e-10
8.4105534e-10
8.1561947e-10
7.8073096e-10
7.3621911e-10
6.8388893e-10
6.2505971e-10
5.6030849e-10
4.9000344e-10
4.1622679e-10
3.3658173e-10
2.4609553e-10
1.2407165e-10
1.2420058e-10
3.4230909e-10
6.2156462e-10
9.8694046e-10
1.4492678e-09
1.97651e-09
2.251963e-09
2.5235691e-09
1.3695224e-09
3.1313426e-09
3.378905e-09
5.6382053e-09
4.4481246e-09
5.8774265e-10
8.4435896e-10
7.480063e-10
9.4476858e-10
7.6646668e-10
1.182019e-10
2.8249573e-10
3.8801003e-10
2.149577e-10
1.8594495e-10
1.4771251e-10
1.3037497e-10
1.1369929e-10
9.9835638e-11
8.6089858e-11
7.3078e-11
6.103941e-11
5.1006728e-11
4.1878845e-11
3.3166496e-11
2.5287845e-11
2.8304772e-11
3.3858626e-11
3.9088956e-11
4.3897404e-11
4.8067709e-11
5.1400805e-11
5.3394529e-11
5.3967465e-11
5.2981723e-11
5.0565377e-11
4.7212662e-11
4.3864828e-11
4.1346583e-11
3.986891e-11
3.9194006e-11
3.9037467e-11
3.9202409e-11
3.9562122e-11
4.0055828e-11
4.067221e-11
4.1322231e-11
4.188357e-11
4.2272927e-11
4.258189e-11
4.283672e-11
4.3934357e-11
4.3727208e-11
4.07507e-11
3.6358783e-11
3.0639555e-11
2.413408e-11
1.7329884e-11
2.2447365e-11
2.9595482e-11
3.5717824e-11
4.043717e-11
4.3464861e-11
4.465353e-11
4.4100963e-11
4.2098754e-11
3.8876503e-11
3.4737383e-11
3.0178359e-11
2.5668949e-11
2.1508885e-11
1.8344255e-11
2.1466038e-11
2.5200182e-11
2.9268873e-11
3.395875e-11
3.9542941e-11
4.6242549e-11
5.4195356e-11
6.3437241e-11
7.3885182e-11
8.5286993e-11
9.7155926e-11
1.0867817e-10
1.18583e-10
1.2511089e-10
1.2577778e-10
1.1850453e-10
1.0135282e-10
7.5115031e-11
4.0659583e-11
3.8489842e-11
5.4699835e-11
5.3347447e-11
5.2672089e-11
5.5788969e-11
6.0916737e-11
6.7036935e-11
7.2720822e-11
7.896012e-11
8.6628204e-11
9.6753043e-11
1.0975996e-10
1.2572377e-10
1.4435667e-10
1.6525323e-10
1.8789996e-10
2.1171803e-10
2.3616159e-10
2.6071733e-10
2.8489846e-10
3.0826439e-10
3.3040276e-10
3.5088098e-10
3.6925317e-10
3.8505756e-10
3.9773961e-10
4.0662772e-10
4.1089443e-10
4.0940612e-10
4.0079631e-10
3.8348808e-10
3.5548412e-10
3.1486571e-10
2.5921973e-10
1.9000102e-10
1.1336782e-10
4.0445208e-11
1.0363516e-10
2.0695783e-10
3.0885687e-10
3.9725143e-10
4.5930487e-10
4.8511283e-10
4.7160955e-10
4.2137602e-10
3.4599872e-10
2.62601e-10
1.8777796e-10
1.3285816e-10
1.0132261e-10
8.4615773e-11
6.1747702e-11
3.49689e-11
9.8082051e-11
1.4628358e-10
1.5604037e-10
1.2743709e-10
7.3013928e-11
3.0850223e-11
8.7328681e-11
1.3079279e-10
1.5726449e-10
1.7163851e-10
1.8575702e-10
2.0234376e-10
2.2002299e-10
2.2759456e-10
2.2415255e-10
2.0549604e-10
1.7445512e-10
1.4617724e-10
1.1341799e-10
8.0136181e-11
4.5983971e-11
2.7055848e-11
6.4027928e-11
1.0307767e-10
1.4359435e-10
1.8597351e-10
2.3315056e-10
2.8413596e-10
3.35441e-10
3.8538654e-10
4.324787e-10
4.7553477e-10
5.1370744e-10
5.4640981e-10
5.7105976e-10
5.8389687e-10
5.8371441e-10
5.735296e-10
5.5642512e-10
5.3211294e-10
5.0151338e-10
4.6524159e-10
4.2340567e-10
3.7585036e-10
3.2380531e-10
2.6459482e-10
1.9496247e-10
1.0072396e-10
1.0168926e-10
2.6840583e-10
4.7570264e-10
7.182134e-10
1.0484473e-09
1.2325174e-09
1.6056414e-09
1.130189e-09
4.5023905e-10
1.0517047e-09
1.0710925e-09
7.306205e-10
9.5054181e-10
5.6759171e-12
3.3650458e-11
1.6008566e-11
1.5384924e-10
1.6486802e-10
2.6819167e-11
9.7782354e-11
2.2463886e-10
1.0192632e-10
1.0352965e-10
8.1303582e-11
7.4451045e-11
6.5443948e-11
5.7939658e-11
5.0007797e-11
4.231114e-11
3.5049855e-11
2.8924542e-11
2.3505208e-11
1.854918e-11
1.4217024e-11
1.5143701e-11
1.7244343e-11
1.9133639e-11
2.0779916e-11
2.2106508e-11
2.3052878e-11
2.3390676e-11
2.3071038e-11
2.2066881e-11
2.0474145e-11
1.8529945e-11
1.6618155e-11
1.5039201e-11
1.384228e-11
1.2920501e-11
1.2177002e-11
1.1566701e-11
1.105487e-11
1.0626778e-11
1.0281392e-11
9.9995182e-12
9.7579358e-12
9.548075e-12
9.394418e-12
9.3146515e-12
9.4160787e-12
9.2284164e-12
8.5677826e-12
7.6648198e-12
6.5425575e-12
5.3010938e-12
4.0402062e-12
5.0034485e-12
6.3477316e-12
7.4915033e-12
8.3657394e-12
8.9203124e-12
9.1312506e-12
9.0197007e-12
8.6400368e-12
8.0367734e-12
7.2687337e-12
6.4294934e-12
5.6062627e-12
4.8539622e-12
4.27433e-12
4.83162e-12
5.5084263e-12
6.2468305e-12
7.0961303e-12
8.1038852e-12
9.3084541e-12
1.0733533e-11
1.2385019e-11
1.4247903e-11
1.6277079e-11
1.8385295e-11
2.0426371e-11
2.217191e-11
2.3306035e-11
2.3388513e-11
2.2062207e-11
1.8997719e-11
1.4361975e-11
8.3677417e-12
8.126107e-12
1.0972767e-11
1.0771476e-11
1.0661355e-11
1.1172343e-11
1.2024216e-11
1.3047642e-11
1.4006412e-11
1.5074493e-11
1.6404538e-11
1.8173186e-11
2.0452412e-11
2.3253898e-11
2.6524384e-11
3.0202027e-11
3.419983e-11
3.8412985e-11
4.2750706e-11
4.7124719e-11
5.1450389e-11
5.5650721e-11
5.965351e-11
6.338285e-11
6.6760263e-11
6.9704345e-11
7.2116952e-11
7.3878357e-11
7.483951e-11
7.4794122e-11
7.3480147e-11
7.0597759e-11
6.5762787e-11
5.8596799e-11
4.8625299e-11
3.6072186e-11
2.2079015e-11
8.456742e-12
1.9754198e-11
3.8753015e-11
5.7456053e-11
7.3492235e-11
8.4455566e-11
8.8628446e-11
8.5735688e-11
7.6401568e-11
6.2805463e-11
4.8010197e-11
3.485859e-11
2.5224664e-11
1.967102e-11
1.67145e-11
1.2667252e-11
7.6440587e-12
1.9095681e-11
2.8160304e-11
3.024812e-11
2.5110534e-11
1.4979912e-11
6.8303661e-12
1.740174e-11
2.5662394e-11
3.0776506e-11
3.3655476e-11
3.6507835e-11
3.9852112e-11
4.3479896e-11
4.537435e-11
4.5558748e-11
4.2765291e-11
3.7321867e-11
3.2226814e-11
2.5919524e-11
1.9139033e-11
1.1698538e-11
7.3887342e-12
1.7529248e-11
2.9368372e-11
4.2901087e-11
5.838242e-11
7.6793014e-11
9.78071e-11
1.2021242e-10
1.4324352e-10
1.661029e-10
1.8806009e-10
2.0848559e-10
2.2686403e-10
2.4190651e-10
2.5216191e-10
2.5720801e-10
2.5830335e-10
2.5623826e-10
2.5074789e-10
2.419861e-10
2.2997226e-10
2.144804e-10
1.9504779e-10
1.7198377e-10
1.4305333e-10
1.0690123e-10
5.7047163e-11
5.8460756e-11
1.4539212e-10
2.4927645e-10
3.5363452e-10
5.0681209e-10
5.0291833e-10
7.2447219e-10
3.2247967e-10
8.3954997e-11
2.1596312e-10
1.8515947e-10
1.511338e-11
3.9395749e-11
4.6604816e-15
1.6911095e-13
2.1283162e-14
1.2206658e-11
2.2530095e-11
4.2693568e-12
2.3777238e-11
8.4731834e-11
3.3169989e-11
3.9631999e-11
3.1096078e-11
2.9710816e-11
2.6404365e-11
2.3584086e-11
2.0336296e-11
1.707945e-11
1.393652e-11
1.1255062e-11
8.969981e-12
6.9945231e-12
5.349186e-12
5.3487922e-12
5.710574e-12
5.9977563e-12
6.2079879e-12
6.3281704e-12
6.3523672e-12
6.2147213e-12
5.8993151e-12
5.4159977e-12
4.8080705e-12
4.1466412e-12
3.5230115e-12
2.9965527e-12
2.5690628e-12
2.2155133e-12
1.9198189e-12
1.676814e-12
1.4773649e-12
1.3150815e-12
1.1855826e-12
1.0831106e-12
1.0026375e-12
9.416478e-13
9.009886e-13
8.821327e-13
8.8767124e-13
8.6734453e-13
8.1107414e-13
7.3620314e-13
6.4535005e-13
5.4651689e-13
4.4895325e-13
5.2833233e-13
6.4015252e-13
7.3553794e-13
8.0854843e-13
8.5512529e-13
8.7336615e-13
8.6507603e-13
8.3452187e-13
7.854754e-13
7.2305159e-13
6.5515756e-13
5.8907506e-13
5.2932114e-13
4.8198237e-13
5.2605709e-13
5.8120914e-13
6.4169475e-13
7.1115407e-13
7.9320896e-13
8.9077969e-13
1.0056593e-12
1.1382784e-12
1.2874398e-12
1.4495501e-12
1.6175988e-12
1.7797828e-12
1.9176165e-12
2.0055855e-12
2.0087696e-12
1.9001546e-12
1.6551938e-12
1.2901746e-12
8.2911872e-13
8.2946689e-13
1.0537253e-12
1.0431621e-12
1.0359117e-12
1.0711955e-12
1.1315635e-12
1.2050127e-12
1.274953e-12
1.3550837e-12
1.4573521e-12
1.5951471e-12
1.7737576e-12
1.9938665e-12
2.250709e-12
2.5408632e-12
2.8577097e-12
3.1922423e-12
3.5380721e-12
3.8884232e-12
4.2367111e-12
4.5769043e-12
4.9033361e-12
5.2100401e-12
5.4908294e-12
5.7392879e-12
5.9476655e-12
6.1064402e-12
6.2037644e-12
6.2225315e-12
6.1401085e-12
5.9307136e-12
5.5608202e-12
4.9964594e-12
4.1949936e-12
3.1697073e-12
2.0171082e-12
8.5289737e-13
1.7398841e-12
3.312169e-12
4.8567997e-12
6.1594316e-12
7.0160318e-12
7.2966489e-12
7.0107553e-12
6.2273919e-12
5.1314723e-12
3.9667597e-12
2.9461856e-12
2.2020085e-12
1.7707785e-12
1.5391169e-12
1.225407e-12
7.9769802e-13
1.7034999e-12
2.4559457e-12
2.6556353e-12
2.2544662e-12
1.4262098e-12
7.1650065e-13
1.5720672e-12
2.2504599e-12
2.672227e-12
2.9118602e-12
3.1458361e-12
3.4155178e-12
3.7061816e-12
3.8688954e-12
3.9147762e-12
3.7312258e-12
3.3585355e-12
3.0132414e-12
2.5505891e-12
2.0152694e-12
1.3653701e-12
9.4416101e-13
2.2193928e-12
3.9285386e-12
6.154163e-12
9.0292376e-12
1.2798261e-11
1.7481916e-11
2.2921299e-11
2.8976006e-11
3.5447971e-11
4.2112321e-11
4.8733054e-11
5.50816e-11
6.0741311e-11
6.5376392e-11
6.8909767e-11
7.1676797e-11
7.3678343e-11
7.4781747e-11
7.4916547e-11
7.3957688e-11
7.1682193e-11
6.7712958e-11
6.1958458e-11
5.3065742e-11
4.0618546e-11
2.2648034e-11
2.3682213e-11
5.4873199e-11
9.031315e-11
1.1941294e-10
1.6514946e-10
1.3887877e-10
2.0423732e-10
6.6614973e-11
1.1823518e-11
3.0287899e-11
1.8579576e-11
2.2878823e-14
2.0040383e-13
1.244533e-17
8.6956901e-17
1.3460666e-17
3.559492e-13
1.9621036e-12
5.6011198e-13
4.5349524e-12
2.0447628e-11
7.8480013e-12
1.0503529e-11
8.3527627e-12
8.2602667e-12
7.4083022e-12
6.640412e-12
5.6861719e-12
4.7041407e-12
3.7453504e-12
2.9286477e-12
2.2660974e-12
1.7298411e-12
1.3083351e-12
1.2169815e-12
1.2034796e-12
1.181248e-12
1.1505118e-12
1.1099463e-12
1.0597073e-12
9.8767661e-13
8.9139107e-13
7.7626098e-13
6.5206567e-13
5.3041975e-13
4.2281639e-13
3.3478025e-13
2.6481352e-13
2.0921803e-13
1.6571677e-13
1.3270974e-13
1.0776345e-13
8.9024017e-14
7.511796e-14
6.489147e-14
5.7494389e-14
5.2407013e-14
4.9410312e-14
4.852965e-14
4.9895347e-14
5.0027612e-14
4.8043676e-14
4.4974281e-14
4.1031067e-14
3.6641454e-14
3.2378009e-14
3.6610641e-14
4.2601403e-14
4.7805882e-14
5.186313e-14
5.4538331e-14
5.5714609e-14
5.5472024e-14
5.4013118e-14
5.1541103e-14
4.8346381e-14
4.4864992e-14
4.1494883e-14
3.8482869e-14
3.60774e-14
3.8375424e-14
4.1353383e-14
4.4646677e-14
4.8421116e-14
5.2851988e-14
5.8081358e-14
6.4196253e-14
7.1217345e-14
7.9084045e-14
8.7611997e-14
9.6435606e-14
1.0493352e-13
1.1212821e-13
1.1667082e-13
1.1673988e-13
1.1098397e-13
9.8234235e-14
7.9499495e-14
5.6499847e-14
5.7613664e-14
6.9566945e-14
6.9585542e-14
6.9364285e-14
7.0865568e-14
7.352189e-14
7.6831099e-14
8.0062813e-14
8.3933169e-14
8.9061885e-14
9.6113069e-14
1.0533687e-13
1.1674985e-13
1.3005121e-13
1.4517032e-13
1.6176413e-13
1.7929118e-13
1.9747321e-13
2.1596342e-13
2.3442102e-13
2.525315e-13
2.6999882e-13
2.8651142e-13
3.0174585e-13
3.1536731e-13
3.2697238e-13
3.3606414e-13
3.4200999e-13
3.4384251e-13
3.4034501e-13
3.3008852e-13
3.112005e-13
2.8174754e-13
2.3932872e-13
1.8448156e-13
1.225745e-13
5.88701e-14
1.0390499e-13
1.8815159e-13
2.7089921e-13
3.3959849e-13
3.8310257e-13
3.950727e-13
3.7721444e-13
3.3437966e-13
2.7688686e-13
2.1731434e-13
1.6598753e-13
1.2886073e-13
1.0723392e-13
9.5305657e-14
7.9355128e-14
5.6460764e-14
1.0121643e-13
1.4003479e-13
1.5118508e-13
1.3099489e-13
8.8403969e-14
5.0322708e-14
9.2378004e-14
1.2617706e-13
1.4688986e-13
1.5826499e-13
1.6879437e-13
1.8032818e-13
1.9191584e-13
1.9697879e-13
1.9522212e-13
1.8355347e-13
1.6753389e-13
1.5440815e-13
1.3691073e-13
1.1608114e-13
8.8692221e-14
6.9192292e-14
1.518121e-13
2.7759965e-13
4.6231314e-13
7.3077779e-13
1.1215934e-12
1.6573295e-12
2.3436412e-12
3.1822584e-12
4.1612394e-12
5.2566653e-12
6.4335634e-12
7.64865e-12
8.8258761e-12
9.917789e-12
1.0921615e-11
1.1901585e-11
1.2827249e-11
1.366971e-11
1.4398915e-11
1.4965725e-11
1.5289022e-11
1.52234e-11
1.4685524e-11
1.3143881e-11
1.0455442e-11
6.209139e-12
6.666992e-12
1.4313044e-11
2.2561721e-11
2.8023205e-11
3.673458e-11
2.7763433e-11
3.6502465e-11
1.137097e-11
1.6046712e-12
2.8950997e-12
1.0109968e-12
1.3121354e-17
9.4002385e-17
4.6115094e-22
3.1744887e-19
4.520039e-23
1.9623264e-15
9.7129094e-14
5.9336797e-14
7.087196e-13
3.4560416e-12
1.4936633e-12
2.0897651e-12
1.707526e-12
1.7117845e-12
1.5390141e-12
1.3703836e-12
1.1564729e-12
9.360715e-13
7.2322453e-13
5.4553415e-13
4.0883226e-13
3.0476232e-13
2.2710638e-13
1.9778e-13
1.8199022e-13
1.6745702e-13
1.5383919e-13
1.4073325e-13
1.2797354e-13
1.138175e-13
9.7969102e-14
8.1359748e-14
6.5182968e-14
5.0552119e-14
3.8326194e-14
2.8719786e-14
2.1378074e-14
1.5836948e-14
1.1768136e-14
8.8751814e-15
6.8181057e-15
5.3570053e-15
4.3256459e-15
3.6019586e-15
3.102618e-15
2.7764696e-15
2.5969506e-15
2.5625595e-15
2.6853447e-15
2.7497529e-15
2.6909178e-15
2.5711526e-15
2.4044427e-15
2.2134715e-15
2.031296e-15
2.2526508e-15
2.5641088e-15
2.8389734e-15
3.0566484e-15
3.2040801e-15
3.2743726e-15
3.2707812e-15
3.20266e-15
3.080581e-15
2.9203731e-15
2.7452826e-15
2.576386e-15
2.4269675e-15
2.3104019e-15
2.4279415e-15
2.5835588e-15
2.7567822e-15
2.9550069e-15
3.186546e-15
3.4581611e-15
3.7739794e-15
4.1349774e-15
4.5381945e-15
4.9744662e-15
5.4253114e-15
5.8589851e-15
6.2252852e-15
6.454705e-15
6.4542104e-15
6.1569657e-15
5.5094012e-15
4.5693337e-15
3.4445713e-15
3.5294158e-15
4.1557911e-15
4.1887867e-15
4.1879021e-15
4.2511704e-15
4.3661563e-15
4.5138426e-15
4.6619613e-15
4.8462015e-15
5.097558e-15
5.4484457e-15
5.9108829e-15
6.48537e-15
7.1539817e-15
7.9198298e-15
8.7656305e-15
9.6594239e-15
1.0590317e-14
1.1541004e-14
1.2494326e-14
1.3434356e-14
1.4346103e-14
1.5213826e-14
1.6021187e-14
1.6751299e-14
1.7383805e-14
1.7893575e-14
1.8245792e-14
1.8387623e-14
1.8255422e-14
1.7771381e-14
1.6832981e-14
1.5332279e-14
1.3137679e-14
1.0273442e-14
7.0292197e-15
3.7146067e-15
6.0262823e-15
1.0442082e-14
1.476446e-14
1.8281777e-14
2.0402274e-14
2.0831742e-14
1.9718351e-14
1.7388728e-14
1.441167e-14
1.1421087e-14
8.9020243e-15
7.1077259e-15
6.0659943e-15
5.4752439e-15
4.6785699e-15
3.549396e-15
5.7290232e-15
7.6849171e-15
8.2770824e-15
7.2669383e-15
5.1140669e-15
3.1857145e-15
5.2018884e-15
6.8368183e-15
7.8215293e-15
8.3437243e-15
8.8031443e-15
9.2755626e-15
9.7039481e-15
9.8059909e-15
9.5214139e-15
8.7994885e-15
8.0669194e-15
7.5490551e-15
6.906142e-15
6.1630245e-15
5.1585495e-15
4.5167868e-15
9.169959e-15
1.6783552e-14
2.8757414e-14
4.7453724e-14
7.6621491e-14
1.1949681e-13
1.7855262e-13
2.5611572e-13
3.5333467e-13
4.6993393e-13
6.0390981e-13
7.5138651e-13
9.0408801e-13
1.0573614e-12
1.2126092e-12
1.3799502e-12
1.5553821e-12
1.7368385e-12
1.9214395e-12
2.1026199e-12
2.267374e-12
2.3873458e-12
2.4431085e-12
2.3063571e-12
1.9303503e-12
1.2446917e-12
1.3794737e-12
2.7631991e-12
4.2024107e-12
5.0352851e-12
6.1996673e-12
4.5564311e-12
4.8748628e-12
1.6806324e-12
2.0750956e-13
1.6725102e-13
2.4037055e-14
4.734925e-22
2.2686848e-19
1.0836059e-27
3.749068e-24
9.6323004e-30
2.7585558e-17
2.2173888e-15
4.7986903e-15
8.8790237e-14
4.7798014e-13
2.4183584e-13
3.4794025e-13
2.946789e-13
2.9678083e-13
2.6691226e-13
2.3506053e-13
1.9504455e-13
1.5430144e-13
1.1576194e-13
8.4424577e-14
6.1374145e-14
4.4632197e-14
3.2613851e-14
2.6996718e-14
2.3500975e-14
2.0561078e-14
1.8038572e-14
1.5819775e-14
1.3836263e-14
1.1849649e-14
9.8139681e-15
7.8378698e-15
6.035575e-15
4.493791e-15
3.261735e-15
2.3292779e-15
1.643639e-15
1.1494304e-15
9.6458896e-16
9.9701202e-16
1.0259481e-15
1.0509605e-15
1.0707928e-15
1.0838063e-15
1.0881032e-15
1.0820193e-15
1.0625102e-15
1.0270161e-15
9.5827661e-16
8.8890215e-16
8.4619137e-16
8.1405847e-16
7.8871459e-16
7.6772622e-16
7.5007616e-16
7.349647e-16
7.2220746e-16
7.1144422e-16
7.0235721e-16
6.9465389e-16
6.8802138e-16
6.8224864e-16
6.7705033e-16
6.7223698e-16
6.6766795e-16
6.6324165e-16
6.5889199e-16
6.5465612e-16
6.5063882e-16
6.4688557e-16
6.4343074e-16
6.4029816e-16
6.3749909e-16
6.350299e-16
6.3287413e-16
6.3100588e-16
6.2939631e-16
6.2801127e-16
6.2680695e-16
6.2572267e-16
6.2467155e-16
6.2352255e-16
6.2205551e-16
6.2000416e-16
6.1733628e-16
6.1403137e-16
6.1004908e-16
6.0562937e-16
6.0197978e-16
6.0072996e-16
6.0118209e-16
6.0127332e-16
6.0127467e-16
6.0165684e-16
6.0241972e-16
6.0333828e-16
6.0401585e-16
6.0428167e-16
6.0415785e-16
6.0382524e-16
6.0350509e-16
6.0338636e-16
6.0358655e-16
6.0415127e-16
6.050746e-16
6.0632144e-16
6.0784984e-16
6.0962642e-16
6.3190757e-16
6.7483471e-16
7.1608776e-16
7.5494352e-16
7.9065577e-16
8.223207e-16
8.4881122e-16
8.6837586e-16
8.7847524e-16
8.7602488e-16
8.5713572e-16
8.1662594e-16
7.4888564e-16
6.6575247e-16
6.7057781e-16
6.7499254e-16
6.7860823e-16
6.8065662e-16
6.80247e-16
7.2821291e-16
8.8991104e-16
9.7999713e-16
9.8704335e-16
9.2238968e-16
8.0564743e-16
6.6509254e-16
6.2099741e-16
6.2397099e-16
6.31044e-16
6.3953392e-16
6.4751819e-16
6.5678489e-16
6.6922796e-16
6.8433453e-16
7.0051934e-16
7.1531361e-16
7.2634232e-16
7.3359263e-16
7.3830794e-16
7.4231522e-16
7.4728602e-16
7.5473019e-16
7.653329e-16
7.7828864e-16
7.9326772e-16
8.1341703e-16
8.4649451e-16
9.0806084e-16
9.7668342e-16
1.0187386e-15
1.03902e-15
1.041914e-15
1.0331233e-15
1.0163478e-15
9.9382352e-16
9.6703269e-16
1.003071e-15
1.7799359e-15
3.0695664e-15
5.1996269e-15
8.5084808e-15
1.3326501e-14
2.0006572e-14
2.8831102e-14
3.9966389e-14
5.3402551e-14
6.8894918e-14
8.5698637e-14
1.0343561e-13
1.2246395e-13
1.4417955e-13
1.6830778e-13
1.9495049e-13
2.2415934e-13
2.5554522e-13
2.8787139e-13
3.1741846e-13
3.4185893e-13
3.389903e-13
2.9830438e-13
2.0861165e-13
2.378374e-13
4.5194927e-13
6.68471e-13
7.8404504e-13
9.0580617e-13
6.5542695e-13
5.7770545e-13
2.0731475e-13
2.3847434e-14
4.6909139e-15
1.8398144e-16
3.8313754e-27
1.488248e-24
2.7887886e-31
1.4140749e-29
5.454014e-27
4.1079308e-22
3.6383451e-17
2.7702128e-16
8.5637075e-15
5.62698e-14
3.2806396e-14
4.9704542e-14
4.3917911e-14
4.4864029e-14
4.0598899e-14
3.5525134e-14
2.9065302e-14
2.2504522e-14
1.6386192e-14
1.1529822e-14
8.0976595e-15
5.7081534e-15
4.0547972e-15
3.2074064e-15
2.6607001e-15
2.2255876e-15
1.8725321e-15
1.5793938e-15
1.3320616e-15
1.1002786e-15
8.7701168e-16
7.2726474e-16
7.6070675e-16
7.9651319e-16
8.3486414e-16
8.7569988e-16
9.1817938e-16
9.6003367e-16
9.9835277e-16
1.0325099e-15
1.0630854e-15
1.089641e-15
1.1108768e-15
1.1250557e-15
1.1302096e-15
1.1246556e-15
1.1053103e-15
1.0695856e-15
1.0002365e-15
9.2935879e-16
8.8483511e-16
8.5132428e-16
8.248387e-16
8.028977e-16
7.8445654e-16
7.6869855e-16
7.5547842e-16
7.4446598e-16
7.353161e-16
7.2770039e-16
7.2124748e-16
7.1570232e-16
7.1072777e-16
7.0609152e-16
7.0162305e-16
6.9720081e-16
6.9274869e-16
6.8833289e-16
6.8410509e-16
6.8013573e-16
6.7648213e-16
6.7318488e-16
6.7026674e-16
6.6772997e-16
6.6555886e-16
6.6372467e-16
6.6219387e-16
6.6092504e-16
6.5986343e-16
6.5893058e-16
6.5801337e-16
6.5693751e-16
6.554093e-16
6.5306968e-16
6.4982868e-16
6.4568737e-16
6.4059284e-16
6.3486833e-16
6.3010991e-16
6.2850573e-16
6.2924668e-16
6.2958455e-16
6.298089e-16
6.3053196e-16
6.3173996e-16
6.3312143e-16
6.3414558e-16
6.345873e-16
6.3448482e-16
6.3408944e-16
6.3370424e-16
6.3358474e-16
6.3388753e-16
6.3467198e-16
6.3592742e-16
6.3760518e-16
6.3964883e-16
6.4201405e-16
6.4467656e-16
6.4763593e-16
6.50913e-16
6.5454679e-16
6.5859628e-16
6.6313759e-16
6.6825557e-16
6.7388175e-16
6.800557e-16
6.86775e-16
6.9398655e-16
7.015411e-16
7.0912323e-16
7.1622215e-16
7.2251302e-16
7.2814682e-16
7.3260655e-16
7.34926e-16
7.3382213e-16
7.2851248e-16
7.1873943e-16
7.0507356e-16
6.8911604e-16
6.7351458e-16
6.5989799e-16
6.5012284e-16
6.4596071e-16
6.4834559e-16
6.5619764e-16
6.6613181e-16
6.7552295e-16
6.8658978e-16
7.017841e-16
7.2036619e-16
7.4025181e-16
7.5798392e-16
7.7036161e-16
7.7729104e-16
7.8052995e-16
7.8251512e-16
7.8534317e-16
7.9089486e-16
7.9992851e-16
8.1123085e-16
8.2417499e-16
8.4229093e-16
8.7469568e-16
9.3673231e-16
1.0060198e-15
1.0487247e-15
1.0682537e-15
1.0693061e-15
1.0584746e-15
1.0397555e-15
1.0154526e-15
9.8714884e-16
9.5625782e-16
9.232174e-16
8.883626e-16
8.5274623e-16
8.1809049e-16
8.958669e-16
1.416035e-15
2.1426158e-15
3.108998e-15
4.3339133e-15
5.8119613e-15
7.4871756e-15
9.3401537e-15
1.1433972e-14
1.3948795e-14
1.68844e-14
2.030295e-14
2.4269937e-14
2.881029e-14
3.3857838e-14
3.8997632e-14
4.4034118e-14
4.5624069e-14
4.1919667e-14
3.1279819e-14
3.6354362e-14
6.62206e-14
9.506557e-14
1.0806982e-13
1.1654412e-13
8.0366378e-14
6.0399917e-14
2.0231345e-14
2.3407403e-15
4.6282434e-17
2.2422537e-17
3.0720691e-31
2.2901172e-30
4.0480781e-31
6.9823522e-31
4.4770501e-31
8.1126691e-29
2.6870802e-18
8.7231635e-17
6.0520979e-16
5.3998713e-15
3.6102921e-15
5.9011675e-15
5.4859497e-15
5.7498412e-15
5.2715966e-15
4.6079921e-15
3.7273268e-15
2.8258311e-15
1.9925764e-15
1.3473001e-15
9.0969548e-16
6.1819598e-16
5.4233078e-16
5.6158682e-16
5.8073778e-16
6.0025328e-16
6.2056254e-16
6.4195966e-16
6.6547823e-16
6.921005e-16
7.2160822e-16
7.5345399e-16
7.8763903e-16
8.2435592e-16
8.6389076e-16
9.0625068e-16
9.505558e-16
9.9439217e-16
1.0347115e-15
6.7946216e-16
4.521923e-16
3.1394275e-16
2.2863466e-16
1.7523724e-16
1.4166096e-16
1.2105466e-16
1.0936326e-16
1.0514635e-16
1.0666532e-16
1.0720022e-16
1.0675522e-16
1.062382e-16
1.0582169e-16
1.054718e-16
1.0521074e-16
1.0502886e-16
1.0504686e-16
1.0529456e-16
1.0574734e-16
1.0636702e-16
1.0708081e-16
1.07839e-16
1.0856454e-16
1.091995e-16
1.0969757e-16
1.1002567e-16
1.1017064e-16
1.1017388e-16
1.1011321e-16
1.1003477e-16
1.0997179e-16
1.0995062e-16
1.0998967e-16
1.1009826e-16
1.1027737e-16
1.105216e-16
1.1082196e-16
1.1116426e-16
1.1152668e-16
1.1187501e-16
1.121584e-16
1.1229855e-16
1.1216872e-16
1.1162056e-16
1.1064589e-16
1.0924554e-16
1.0743715e-16
1.0542818e-16
1.0399425e-16
1.0401307e-16
1.0424175e-16
1.04984e-16
1.053113e-16
1.0583999e-16
1.0653226e-16
1.0722747e-16
1.0771e-16
1.0791036e-16
1.0787091e-16
1.0771438e-16
1.0757174e-16
1.0731751e-16
1.07486e-16
1.0801187e-16
1.0852011e-16
1.0918024e-16
1.0997265e-16
1.1088102e-16
1.1189779e-16
1.130252e-16
1.1427382e-16
1.1566121e-16
1.1721303e-16
1.1896245e-16
1.209536e-16
1.2316288e-16
1.2560418e-16
1.2828612e-16
1.3119619e-16
1.3428186e-16
1.3742822e-16
1.404042e-16
1.4294514e-16
1.4498591e-16
1.4647582e-16
1.4706098e-16
1.4610531e-16
1.4311436e-16
1.3795655e-16
1.3089896e-16
1.2267953e-16
1.1444969e-16
1.0714601e-16
1.0134979e-16
9.7601316e-17
9.6226639e-17
9.7042806e-17
9.9034088e-17
1.0091674e-16
1.0285163e-16
1.0618704e-16
1.1075248e-16
1.1604329e-16
1.2069154e-16
1.2305982e-16
1.2266317e-16
1.200738e-16
1.1635712e-16
1.1233407e-16
1.0866439e-16
1.0562075e-16
1.027104e-16
9.9384981e-17
9.5865733e-17
9.3452085e-17
9.1481438e-17
9.0441848e-17
9.5786874e-17
1.0623275e-16
1.2313941e-16
1.5027813e-16
1.9333016e-16
2.6267754e-16
3.7526404e-16
5.6089382e-16
8.7020348e-16
9.0582462e-16
8.7020891e-16
8.359221e-16
8.0367593e-16
7.7340431e-16
7.4507218e-16
7.1868141e-16
6.9429772e-16
6.7211936e-16
6.5229092e-16
7.2401986e-16
9.1808318e-16
1.1632962e-15
1.463976e-15
1.8329856e-15
2.2854233e-15
2.8347625e-15
3.4878244e-15
4.2097922e-15
4.9965691e-15
5.4104423e-15
5.1782163e-15
4.0812183e-15
4.8051016e-15
8.4051275e-15
1.1640668e-14
1.2654178e-14
1.2615809e-14
8.0483859e-15
5.2619121e-15
1.4727296e-15
1.9162644e-16
7.2294269e-18
1.1912044e-20
2.1184931e-27
6.8738319e-31
5.8152059e-31
2.0930634e-24
3.755397e-22
3.6740163e-25
1.5507424e-21
2.4999157e-17
1.0959387e-16
4.0758477e-16
3.1369871e-16
5.6565306e-16
5.5898011e-16
6.0727881e-16
5.6787419e-16
4.9831159e-16
4.2003404e-16
4.4864268e-16
4.7616121e-16
5.0116606e-16
5.235854e-16
5.4440646e-16
5.6461747e-16
5.8465669e-16
6.0454688e-16
6.247872e-16
6.4580028e-16
6.6786043e-16
6.9196531e-16
7.1913666e-16
7.4922353e-16
7.8169837e-16
8.1661718e-16
5.5155344e-16
3.6327408e-16
2.3635676e-16
1.5302183e-16
9.9828364e-17
6.7190272e-17
4.7721452e-17
3.5905375e-17
2.8576095e-17
2.3919776e-17
2.0869595e-17
1.8797183e-17
1.7337687e-17
1.6234151e-17
1.5383964e-17
1.4423131e-17
1.3368445e-17
1.2636416e-17
1.2086099e-17
1.1656282e-17
1.130539e-17
1.1016873e-17
1.0777556e-17
1.0591546e-17
1.045753e-17
1.0367274e-17
1.0312281e-17
1.0280938e-17
1.0264775e-17
1.0253921e-17
1.0240405e-17
1.0217974e-17
1.0182133e-17
1.0130867e-17
1.0068747e-17
1.0004291e-17
9.9421812e-18
9.8858599e-18
9.8378938e-18
9.7999759e-18
9.772828e-18
9.7563024e-18
9.7496029e-18
9.7515722e-18
9.7605053e-18
9.7738843e-18
9.7878752e-18
9.7968771e-18
9.7923786e-18
9.7606985e-18
9.6856914e-18
9.5650323e-18
9.3997942e-18
9.1922768e-18
8.964431e-18
8.7955525e-18
8.7726536e-18
8.8067256e-18
8.8595439e-18
8.8902004e-18
8.9428572e-18
9.0126774e-18
9.0824284e-18
9.1297316e-18
9.147593e-18
9.1409847e-18
9.1232064e-18
9.1082125e-18
9.093816e-18