/*--------------------------------*- C++ -*----------------------------------*\
| =========                 |                                                 |
| \\      /  F ield         | OpenFOAM: The Open Source CFD Toolbox           |
|  \\    /   O peration     | Version:  2.4.0                                 |
|   \\  /    A nd           | Web:      www.OpenFOAM.org                      |
|    \\/     M anipulation  |                                                 |
\*---------------------------------------------------------------------------*/
FoamFile
{
    version     2.0;
    format      ascii;
    class       volScalarField;
    location    "250";
    object      p;
}
// * * * * * * * * * * * * * * * * * * * * * * * * * * * * * * * * * * * * * //

dimensions      [0 2 -2 0 0 0 0];

internalField   nonuniform List<scalar> 
32000
(
-0.016389498
-0.0047170784
-0.0081444924
-0.0075790761
-0.0064218764
-0.0018740104
0.0035318891
0.007141009
0.0090068371
0.010031528
0.010797519
0.011525193
0.012194482
0.012822344
0.013371604
0.013817265
0.01414965
0.014386547
0.014552085
0.014628017
0.014633
0.014554595
0.014405594
0.014193078
0.013913678
0.013579467
0.013191604
0.012767403
0.012319977
0.01186606
0.011418242
0.010982443
0.010550415
0.010105102
0.0096351162
0.009139734
0.0086215728
0.0080842063
0.0075332572
0.0069747162
0.0064141292
0.0058569722
0.0053090571
0.0047758106
0.0042638538
0.0037753548
0.0033176034
0.0028609542
0.0024918045
0.0022165059
0.0020508252
0.0019932471
0.0020400436
0.0021780123
0.0023892493
0.0026556015
0.0029629649
0.0032990384
0.003652995
0.0040144509
0.0043758855
0.0047319482
0.0050753141
0.0054010316
0.0057109088
0.0060079432
0.0062893054
0.0065504461
0.0067812226
0.0069656197
0.0070821295
0.0071051504
0.0070063411
0.0067563118
0.0063267248
0.0056933701
0.004840453
0.0037664444
0.0024924533
0.0010706108
-0.00040227685
-0.0017879473
-0.0028944376
-0.0035525938
-0.0035748764
-0.0029857177
-0.0018375275
-0.00086243068
-0.0007303169
-0.0011441412
-0.0019511314
-0.0030080803
-0.0042356584
-0.0055994555
-0.0070418698
-0.0085038475
-0.0099156588
-0.011215688
-0.012347809
-0.013262402
-0.013911661
-0.014247406
-0.014220991
-0.013784909
-0.01289351
-0.011505385
-0.0095843608
-0.0070989873
-0.0040239373
-0.00034145136
0.0039606203
0.0088877206
0.014435754
0.020588704
0.027314425
0.034560412
0.042241775
0.050235707
0.058349643
0.06633375
0.073769847
0.080285527
0.086003981
0.090702039
0.093771535
0.09493097
0.094039727
0.091302274
0.08727105
0.082763994
0.078638729
0.075487339
0.073469741
0.072371118
0.071805764
0.071372011
0.070571612
0.069061168
0.067046584
0.066025728
0.067315696
0.070668178
0.075099336
0.079410796
0.082773019
0.084744491
0.085360873
0.08499255
0.084108658
0.083003935
0.081494815
0.079263513
0.075815794
0.071267693
0.065957765
0.060754855
0.0554193
0.050227888
0.045169688
0.04035757
0.035792841
0.031546775
0.027630782
0.024091542
0.020931731
0.01821242
0.016160436
0.014902303
0.014532909
0.015130657
0.01673497
0.019365119
0.023015286
0.027701675
0.033251166
0.039412592
0.04587558
0.052567239
0.059338322
0.066062218
0.07262101
0.078912585
0.084805263
0.090182737
0.09496051
0.098786042
0.10140395
0.10215434
0.099750028
0.093342724
0.082000522
0.064495019
0.04062838
0.011699413
-0.013836557
-0.030337666
-0.037316606
-0.038260704
-0.033457168
-0.03198561
-0.016390562
-0.0047169489
-0.0081432884
-0.0075745602
-0.0064197702
-0.0018820782
0.0035165972
0.0071268123
0.0089968393
0.010024622
0.010791429
0.011519138
0.012188586
0.012816703
0.013366578
0.013813099
0.01414647
0.014384176
0.014550455
0.014627154
0.014632835
0.014555169
0.01440681
0.014194917
0.01391612
0.013582468
0.013195123
0.012771317
0.01232415
0.011870336
0.011422491
0.010986586
0.010554465
0.010109119
0.009639115
0.009143664
0.0086253639
0.0080877873
0.007536548
0.0069776398
0.0064166231
0.00585899
0.0053105703
0.0047768002
0.0042643283
0.0037753055
0.0033171733
0.0028607037
0.0024918229
0.0022167379
0.0020512532
0.0019938293
0.0020407348
0.0021787506
0.0023899734
0.0026562637
0.0029635278
0.0032994744
0.0036532932
0.0040146185
0.0043759397
0.0047319042
0.0050751977
0.0054008797
0.005710754
0.006007802
0.0062891764
0.006550311
0.0067810523
0.0069653808
0.0070817875
0.0071046733
0.0070057028
0.0067554953
0.0063257247
0.0056921963
0.0048391367
0.0037650457
0.0024910715
0.001069394
-0.00040312125
-0.0017881769
-0.0028938329
-0.0035510347
-0.0035723865
-0.0029826285
-0.0018351052
-0.00086162009
-0.00073031487
-0.0011440349
-0.0019508439
-0.0030077013
-0.0042352797
-0.0055990811
-0.0070414154
-0.0085032258
-0.0099148046
-0.011214578
-0.012346454
-0.013260837
-0.013909935
-0.014245578
-0.014219122
-0.01378306
-0.012891742
-0.011503757
-0.0095829286
-0.0070978082
-0.0040230701
-0.00034095591
0.0039606809
0.0088872771
0.014434729
0.020587007
0.027311964
0.034557083
0.042237469
0.05023033
0.058343122
0.066326159
0.073761611
0.080276903
0.085994931
0.090692844
0.093762867
0.094923702
0.094034767
0.091300349
0.087272438
0.08276841
0.078645389
0.075495011
0.073477092
0.072377093
0.071809855
0.071374598
0.070574131
0.069065345
0.067052217
0.066029967
0.067315943
0.070664159
0.075092488
0.079403044
0.082766091
0.08473948
0.085358091
0.084991566
0.084108445
0.083003894
0.081495188
0.079265228
0.075819554
0.07127294
0.065959807
0.060752102
0.055411538
0.050215875
0.045153958
0.040339019
0.035772271
0.03152516
0.027608973
0.024070388
0.020912123
0.018196319
0.016149891
0.014898635
0.014537259
0.015143812
0.016757293
0.01939665
0.023055962
0.027750436
0.03330575
0.039470398
0.045935166
0.052627752
0.059398521
0.066121119
0.072677692
0.07896601
0.084854317
0.090226478
0.094996482
0.098810938
0.10141346
0.10214052
0.099706273
0.093265124
0.081886382
0.064350209
0.040472862
0.011579049
-0.01389394
-0.030348516
-0.037308378
-0.038250191
-0.033448885
-0.031984489
-0.016391429
-0.0047165795
-0.0081418988
-0.0075691851
-0.0064170934
-0.0018905678
0.0035000848
0.0071112392
0.0089857121
0.0100169
0.010784629
0.011512385
0.012182008
0.012810408
0.013360965
0.013808441
0.014142909
0.014381516
0.01454862
0.014626173
0.014632631
0.014555787
0.014408142
0.014196941
0.013918815
0.013585785
0.013199021
0.012775657
0.012328782
0.011875091
0.01142722
0.0109912
0.010558978
0.010113595
0.0096435685
0.0091480368
0.0086295798
0.0080917674
0.0075402033
0.0069808848
0.0064193882
0.0058612239
0.0053122417
0.004777888
0.0042648425
0.0037752359
0.0033166836
0.0028604136
0.0024918381
0.0022169954
0.0020517344
0.0019944872
0.0020415187
0.0021795903
0.0023907979
0.002657017
0.002964166
0.0032999652
0.0036536236
0.0040147989
0.0043759891
0.0047318406
0.0050750511
0.0054006922
0.0057105633
0.0060076285
0.0062890196
0.0065501508
0.0067808566
0.0069651123
0.0070814073
0.0071041449
0.0070049967
0.0067545918
0.0063246167
0.0056908935
0.0048376716
0.0037634824
0.002489517
0.0010680093
-0.00040410739
-0.0017884941
-0.0028932254
-0.0035493567
-0.0035696329
-0.0029791364
-0.0018322311
-0.00086048637
-0.00073015293
-0.0011437962
-0.0019504266
-0.003007197
-0.004234788
-0.0055986087
-0.0070408663
-0.008502499
-0.0099138225
-0.011213312
-0.012344914
-0.013259064
-0.013907988
-0.014243523
-0.014217031
-0.013781004
-0.012889789
-0.011501974
-0.0095813781
-0.007096555
-0.0040221802
-0.00034049656
0.0039606384
0.0088866555
0.014433444
0.020584961
0.027309045
0.034553179
0.042232462
0.050224122
0.058335646
0.066317529
0.073752295
0.080267109
0.085984674
0.090682523
0.093753193
0.094915646
0.094029309
0.09129826
0.087273989
0.082773308
0.078652798
0.07550361
0.07348542
0.072383948
0.071814631
0.071377731
0.070577234
0.069070264
0.067058499
0.066034384
0.067315814
0.070659345
0.075084671
0.079394353
0.082758419
0.084733986
0.085355062
0.0849905
0.084108209
0.083003878
0.081495723
0.079267376
0.075824012
0.071278971
0.065962017
0.060748986
0.055402884
0.050202538
0.045136526
0.040318483
0.035749494
0.031501207
0.027584788
0.024046914
0.020890356
0.018178427
0.016138168
0.014894569
0.014542142
0.015158489
0.016782188
0.019431812
0.02310131
0.027804787
0.033366541
0.039534748
0.046001479
0.05269509
0.059465506
0.066186653
0.072740756
0.079025454
0.084908893
0.09027513
0.09503646
0.098838489
0.10142383
0.10212479
0.099657161
0.093178357
0.081759154
0.064189429
0.040301449
0.011448371
-0.013953863
-0.030357464
-0.037297236
-0.038237469
-0.03343898
-0.031983074
-0.016391821
-0.0047160781
-0.0081401482
-0.0075636025
-0.0064143457
-0.0018991009
0.0034836536
0.0070956869
0.0089744795
0.01000905
0.010777702
0.011505504
0.012175305
0.012803995
0.013355248
0.013803699
0.014139283
0.014378812
0.014546757
0.014625178
0.014632429
0.01455642
0.014409503
0.014199007
0.013921565
0.01358917
0.013202996
0.012780082
0.012333505
0.011879938
0.011432043
0.010995911
0.01056359
0.010118172
0.0096481228
0.0091525112
0.0086338941
0.0080958397
0.007543942
0.0069842016
0.0064222111
0.0058635
0.0053139383
0.0047789839
0.0042653478
0.0037751438
0.0033161618
0.0028600868
0.0024918153
0.0022172182
0.0020521858
0.0019951221
0.0020422879
0.0021804238
0.0023916228
0.0026577741
0.0029648094
0.0033004611
0.0036539581
0.0040149819
0.0043760394
0.0047317772
0.005074904
0.0054005026
0.0057103697
0.0060074539
0.0062888646
0.0065499967
0.0067806729
0.0069648629
0.0070810538
0.0071036512
0.0070043326
0.0067537366
0.0063235614
0.0056896442
0.0048362558
0.0037619566
0.0024879776
0.0010666044
-0.00040516281
-0.0017889362
-0.0028927952
-0.003547886
-0.0035670739
-0.0029757361
-0.0018292031
-0.00085902884
-0.00072972823
-0.001143379
-0.0019498825
-0.0030065978
-0.0042342227
-0.0055980846
-0.0070402896
-0.0085017671
-0.0099128542
-0.011212074
-0.012343417
-0.013257348
-0.013906112
-0.014241558
-0.01421505
-0.013779079
-0.012887988
-0.011500363
-0.0095800202
-0.0070955137
-0.0040215205
-0.00034028489
0.0039603317
0.0088857547
0.014431867
0.020582611
0.027305816
0.034548967
0.042227164
0.050217657
0.05832798
0.066308826
0.073743
0.080257321
0.085974492
0.090672463
0.09374391
0.094908059
0.094024303
0.091296489
0.087275644
0.082778077
0.078659922
0.07551191
0.073493556
0.072390761
0.071819512
0.071381125
0.070580714
0.06907544
0.067064527
0.066038028
0.067314838
0.070653946
0.075076649
0.079385771
0.082751056
0.084728848
0.085352315
0.084989597
0.08410807
0.083004018
0.081496582
0.079270024
0.075829035
0.071285346
0.065963936
0.06074545
0.055393789
0.050188713
0.04511857
0.040297379
0.035726077
0.031476551
0.02755985
0.024022663
0.020867803
0.018159785
0.016125811
0.014890046
0.014546791
0.015173197
0.016807398
0.019467584
0.023147558
0.027860249
0.033428628
0.039600483
0.046069239
0.052763914
0.059533987
0.066253675
0.072805278
0.079086305
0.084964796
0.090325003
0.095077477
0.098866754
0.1014346
0.10210893
0.099607251
0.093090158
0.081630153
0.064027301
0.040130537
0.01132167
-0.014007517
-0.030360862
-0.037282737
-0.038223074
-0.033428568
-0.031981182
-0.01639174
-0.0047154666
-0.0081377622
-0.0075575742
-0.0064113795
-0.0019080026
0.0034667808
0.0070797496
0.0089628587
0.010000866
0.010770453
0.011498294
0.012168277
0.012797273
0.013349257
0.013798731
0.014135486
0.014375983
0.014544812
0.014624144
0.014632228
0.014557096
0.014410944
0.014201188
0.013924464
0.013592734
0.013207177
0.012784734
0.012338468
0.011885028
0.011437108
0.011000862
0.010568443
0.010122992
0.0096529212
0.0091572261
0.0086384402
0.0081001299
0.0075478788
0.0069876913
0.0064251773
0.0058658858
0.0053157087
0.0047801166
0.0042658536
0.0037750206
0.0033155848
0.0028597055
0.0024917417
0.0022173984
0.0020526048
0.0019957367
0.0020430494
0.0021812617
0.0023924606
0.0026585483
0.0029654704
0.0033009728
0.0036543054
0.0040151737
0.0043760949
0.0047317163
0.0050747573
0.0054003107
0.0057101728
0.0060072779
0.0062887121
0.0065498501
0.006780503
0.0069646345
0.0070807287
0.0071031925
0.0070037091
0.0067529257
0.0063225513
0.0056884372
0.0048348734
0.0037604471
0.0024864261
0.0010651459
-0.00040632654
-0.0017895445
-0.0028925821
-0.0035466524
-0.0035647234
-0.0029724073
-0.0018259535
-0.00085716789
-0.00072898496
-0.0011427465
-0.001949183
-0.0030058804
-0.0042335648
-0.0055974948
-0.0070396755
-0.0085010225
-0.0099118932
-0.011210859
-0.012341956
-0.013255683
-0.013904306
-0.014239683
-0.014213183
-0.013777293
-0.012886354
-0.011498947
-0.0095788864
-0.0070947253
-0.0040211423
-0.00034038342
0.0039596853
0.0088844851
0.014429892
0.020579832
0.027302131
0.03454428
0.042221383
0.050210723
0.058319892
0.066299818
0.073733492
0.080247312
0.085964167
0.090662461
0.093734849
0.094900823
0.09401969
0.091295026
0.087277424
0.08278275
0.078666791
0.075519939
0.073501533
0.072397571
0.071824543
0.071384847
0.070584679
0.069080988
0.067070331
0.066040772
0.067312782
0.070647696
0.075068174
0.079377123
0.082743902
0.08472402
0.08534985
0.084988877
0.084108059
0.083004362
0.081497861
0.079273329
0.075834847
0.071292259
0.065965451
0.060741225
0.055383873
0.050173896
0.045099476
0.040274977
0.035701182
0.031450286
0.02753321
0.023996668
0.020843516
0.018139542
0.016112151
0.014884638
0.014551077
0.015188138
0.016833485
0.019504891
0.023195992
0.02791845
0.033493811
0.039669507
0.046140419
0.052836231
0.059605967
0.066324148
0.072873152
0.079150353
0.085023676
0.09037758
0.095120757
0.098896596
0.10144612
0.10209249
0.099555115
0.092998038
0.081495868
0.063859765
0.039956643
0.011198126
-0.01405287
-0.030355747
-0.037262603
-0.038205665
-0.033417244
-0.031978569
-0.016391172
-0.0047147073
-0.00813449
-0.0075508047
-0.0064079267
-0.0019172953
0.0034492985
0.0070633255
0.0089507557
0.0099922665
0.0107628
0.011490671
0.012160839
0.012790156
0.013342913
0.013793471
0.014131462
0.014372989
0.014542758
0.014623057
0.014632026
0.014557822
0.014412482
0.014203511
0.013927547
0.013596522
0.013211618
0.012789673
0.012343732
0.011890427
0.011442479
0.011006115
0.010573596
0.010128114
0.0096580231
0.0091622393
0.0086432732
0.0081046891
0.00755206
0.0069913942
0.0064283195
0.0058684063
0.0053175692
0.0047812937
0.0042663587
0.0037748571
0.0033149374
0.0028592583
0.0024916085
0.0022175298
0.0020529877
0.0019963301
0.0020438046
0.0021821077
0.0023933169
0.0026593454
0.0029661544
0.0033015048
0.0036546682
0.0040153757
0.0043761555
0.0047316567
0.0050746088
0.0054001138
0.0057099697
0.0060070984
0.0062885609
0.0065497106
0.006780348
0.0069644292
0.0070804347
0.0071027719
0.0070031291
0.0067521616
0.006321588
0.0056872721
0.0048335211
0.0037589464
0.0024848494
0.0010636139
-0.00040762686
-0.0017903549
-0.002892628
-0.0035456987
-0.0035626175
-0.0029691629
-0.001822439
-0.00085482931
-0.00072786703
-0.0011418598
-0.0019482981
-0.0030050212
-0.0042327954
-0.005596825
-0.0070390139
-0.0085002592
-0.009910936
-0.011209666
-0.012340532
-0.013254072
-0.013902575
-0.01423791
-0.014211446
-0.01377567
-0.012884916
-0.011497761
-0.0095780166
-0.0070942359
-0.0040210983
-0.0003408521
0.0039586315
0.0088827702
0.014427429
0.020576521
0.027297875
0.034538989
0.042214975
0.050203154
0.058311204
0.066290319
0.073723579
0.080236907
0.085953517
0.090652328
0.09372584
0.094893797
0.094015359
0.091293783
0.087279251
0.082787237
0.0786733
0.075527593
0.073509278
0.072404348
0.071829732
0.07138894
0.070589209
0.069086967
0.067075872
0.066042446
0.067309425
0.070640391
0.075059079
0.079368305
0.082736911
0.08471948
0.085347668
0.084988346
0.084108185
0.08300494
0.081499627
0.079277402
0.075841589
0.07129981
0.06596644
0.060736155
0.055372959
0.050157881
0.045078987
0.040250935
0.035674396
0.031421933
0.027504337
0.023968362
0.020816908
0.01811714
0.016096704
0.014877975
0.01455477
0.015203247
0.016860558
0.019544023
0.023247079
0.027979986
0.033562765
0.039742526
0.046215753
0.052912787
0.059682189
0.066398797
0.072945078
0.079218257
0.085086139
0.090433407
0.095166728
0.098928285
0.10145838
0.10207517
0.099500035
0.092900884
0.081354908
0.063685543
0.039779423
0.011079533
-0.014086338
-0.03033838
-0.037234143
-0.038183721
-0.033404484
-0.031974996
-0.0163901
-0.004713744
-0.0081300282
-0.0075430038
-0.0064036827
-0.0019268881
0.0034311886
0.007046475
0.0089381918
0.0099832499
0.010754731
0.011482614
0.012152967
0.012782618
0.013336191
0.013787895
0.014127194
0.014369816
0.014540583
0.01462191
0.014631822
0.014558601
0.014414123
0.014205986
0.013930829
0.013600549
0.013216336
0.012794915
0.012349318
0.011896151
0.011448173
0.011011687
0.010579069
0.010133559
0.009663447
0.0091675686
0.0086484097
0.0081095325
0.0075564987
0.0069953208
0.0064316456
0.0058710657
0.0053195204
0.004782512
0.0042668563
0.0037746436
0.0033142077
0.0028587347
0.0024914045
0.0022176013
0.0020533241
0.0019968929
0.0020445456
0.0021829559
0.0023941881
0.0026601632
0.0029668601
0.0033020562
0.0036550461
0.0040155873
0.0043762204
0.0047315977
0.0050744579
0.005399911
0.0057097595
0.0060069152
0.0062884114
0.00654958
0.0067802111
0.0069642524
0.0070801795
0.0071023995
0.007002605
0.0067514583
0.0063206865
0.0056861639
0.0048322125
0.0037574645
0.0024832508
0.001062001
-0.00040908625
-0.0017914078
-0.0028929925
-0.0035451004
-0.0035608386
-0.0029660694
-0.0018186503
-0.00085194273
-0.00072630977
-0.0011406755
-0.0019471981
-0.0030039993
-0.0042318989
-0.0055960647
-0.0070383003
-0.0084994783
-0.0099099902
-0.011208508
-0.012339166
-0.013252544
-0.013900955
-0.01423628
-0.014209889
-0.013774264
-0.012883734
-0.011496869
-0.0095774806
-0.0070941192
-0.0040214655
-0.00034177111
0.0039570868
0.0088805228
0.014424386
0.020572579
0.027292941
0.034532977
0.042207813
0.050194817
0.058301774
0.066280195
0.073713123
0.080225999
0.085942431
0.090641932
0.093716768
0.094886875
0.094011208
0.091292638
0.087280962
0.082791321
0.078679178
0.075534589
0.073516556
0.072410943
0.071835024
0.071393417
0.070594357
0.069093375
0.067081009
0.06604279
0.067304508
0.070631845
0.07504926
0.079359293
0.082730111
0.084715257
0.085345795
0.084988016
0.08410846
0.083005788
0.081501952
0.079282349
0.075849374
0.071308044
0.06596677
0.060730131
0.055360969
0.050140592
0.045056984
0.040225034
0.035645447
0.03139115
0.027472828
0.023937286
0.020787485
0.018092079
0.016078998
0.014869634
0.014557523
0.015218263
0.016888453
0.019584918
0.023300847
0.02804493
0.033635589
0.039819635
0.046295348
0.052993692
0.059762762
0.066477734
0.073021163
0.079290117
0.085152282
0.090492574
0.095215445
0.098961823
0.10147131
0.10205677
0.099441735
0.092798385
0.081207086
0.063504924
0.039600263
0.010969086
-0.014103515
-0.030304555
-0.037194373
-0.038155537
-0.033389726
-0.031970156
-0.016388507
-0.004712511
-0.0081239964
-0.0075338351
-0.0063982741
-0.001936652
0.0034124336
0.0070292659
0.0089252025
0.0099738224
0.010746235
0.011474107
0.01214464
0.012774635
0.013329067
0.013781983
0.014122665
0.01436645
0.014538279
0.014620699
0.014631614
0.014559436
0.014415874
0.014208621
0.013934319
0.01360483
0.013221347
0.01280048
0.012355242
0.011902219
0.011454209
0.011017595
0.010584878
0.010139343
0.0096692108
0.0091732318
0.0086538666
0.0081146755
0.0075612083
0.006999482
0.0064351633
0.0058738683
0.0053215626
0.0047837677
0.0042673386
0.0037743693
0.0033133823
0.0028581228
0.0024911165
0.0022175994
0.0020536005
0.0019974128
0.0020452613
0.0021837976
0.0023950686
0.0026609979
0.0029675851
0.0033026256
0.0036554384
0.004015808
0.0043762894
0.0047315393
0.0050743044
0.0053997018
0.0057095415
0.0060067284
0.0062882647
0.0065494605
0.0067800967
0.0069641108
0.0070799726
0.0071020875
0.0070021515
0.0067508328
0.0063198651
0.0056851313
0.0048309645
0.003756014
0.0024816351
0.0010602997
-0.00041073003
-0.0017927501
-0.0028937468
-0.0035449497
-0.0035594919
-0.002963219
-0.0018145915
-0.00084843823
-0.00072424183
-0.0011391455
-0.0019458515
-0.0030027943
-0.004230861
-0.0055952043
-0.0070375305
-0.0084986823
-0.0099090656
-0.011207403
-0.012337884
-0.013251133
-0.01389949
-0.014234847
-0.014208573
-0.013773144
-0.012882883
-0.011496353
-0.0095773635
-0.0070944642
-0.0040223365
-0.00034323618
0.0039549521
0.0088776402
0.014420652
0.020567885
0.027287204
0.03452611
0.042199752
0.050185552
0.058291434
0.066269275
0.073701942
0.080214453
0.085930767
0.090631086
0.093707469
0.094879899
0.094007078
0.091291409
0.087282324
0.08279469
0.07868404
0.075540521
0.073523025
0.07241714
0.071840327
0.071398281
0.070600164
0.069100175
0.067085553
0.066041499
0.067297743
0.070621854
0.075038606
0.079350053
0.082723521
0.084711372
0.085344248
0.08498789
0.084108894
0.083006947
0.081504919
0.079288285
0.075858324
0.071317009
0.065966332
0.060723073
0.055347842
0.050121945
0.045033286
0.040196978
0.035613966
0.031357479
0.027438149
0.023902845
0.02075461
0.018063727
0.016058437
0.01485909
0.014558898
0.015232856
0.016916957
0.019627475
0.023357298
0.028113344
0.03371236
0.039900909
0.04637929
0.053079038
0.059847783
0.066561053
0.073101505
0.079366028
0.085222194
0.090555164
0.095266954
0.098997197
0.1014848
0.10203711
0.099379928
0.092690236
0.081052242
0.063318254
0.039420613
0.010870017
-0.014099924
-0.030249827
-0.037139964
-0.038119096
-0.033372268
-0.031963643
-0.016386397
-0.0047109203
-0.0081159203
-0.0075228935
-0.0063912373
-0.0019464192
0.0033929966
0.0070117504
0.0089118263
0.0099639912
0.010737303
0.011465129
0.012135833
0.012766179
0.013321513
0.01377571
0.014117852
0.014362874
0.014535835
0.014619418
0.014631402
0.014560332
0.014417741
0.014211428
0.013938034
0.013609382
0.013226671
0.012806387
0.012361527
0.011908652
0.011460605
0.01102386
0.010591045
0.010145488
0.009675337
0.0091792511
0.008659665
0.0081201376
0.0075662059
0.0070038921
0.0064388832
0.0058768206
0.0053236975
0.0047850577
0.0042677976
0.0037740224
0.0033124461
0.0028574086
0.0024907293
0.0022175087
0.0020538017
0.0019978759
0.0020459389
0.0021846227
0.0023959515
0.0026618452
0.0029683267
0.0033032116
0.0036558445
0.0040160377
0.0043763622
0.0047314811
0.005074148
0.0053994855
0.0057093152
0.0060065379
0.0062881215
0.0065493545
0.0067800095
0.006964012
0.0070798245
0.0071018495
0.0070017849
0.0067503035
0.0063191439
0.0056841941
0.004829795
0.003754608
0.0024800066
0.0010585006
-0.00041258779
-0.001794435
-0.0028949726
-0.003545354
-0.0035587024
-0.0029607264
-0.0018102792
-0.00084424807
-0.00072158641
-0.0011372182
-0.0019442256
-0.0030013859
-0.0042296682
-0.0055942346
-0.0070367006
-0.0084978735
-0.0099081724
-0.01120637
-0.012336716
-0.013249881
-0.013898233
-0.014233674
-0.014207571
-0.013772393
-0.012882452
-0.011496307
-0.0095777645
-0.0070953742
-0.0040238181
-0.00034535772
0.0039521127
0.0088740027
0.014416096
0.0205623
0.027280515
0.034518224
0.042190611
0.050175159
0.058279967
0.066257334
0.07368981
0.080202072
0.085918316
0.090619536
0.093697706
0.09487264
0.094002739
0.09128984
0.087283024
0.082796941
0.078687391
0.075544864
0.073528231
0.072422637
0.071845509
0.071403512
0.070606655
0.069107297
0.067089274
0.066038236
0.067288821
0.070610197
0.075026993
0.079340536
0.082717137
0.08470783
0.085343032
0.084987961
0.084109492
0.083008461
0.081508617
0.079295337
0.07586857
0.071326765
0.065965054
0.060714931
0.055333524
0.050101825
0.045007598
0.040166357
0.035579429
0.031320289
0.027399577
0.023864246
0.020717456
0.018031277
0.01603428
0.014845696
0.014558372
0.015246638
0.016945826
0.019671595
0.023416457
0.028185317
0.033793196
0.039986462
0.046467715
0.053168967
0.059937393
0.066648901
0.073186244
0.079446123
0.085296006
0.090621299
0.095321322
0.099034397
0.10149874
0.10201597
0.099314256
0.092576032
0.080890089
0.063125735
0.039241756
0.01078531
-0.014071249
-0.030169644
-0.037067289
-0.038072056
-0.033351225
-0.031954925
-0.016383775
-0.0047088613
-0.0081052208
-0.0075096946
-0.0063819994
-0.0019559697
0.0033728257
0.0069939627
0.0088981111
0.0099537692
0.010727928
0.011455661
0.012126519
0.012757219
0.013313501
0.013769049
0.014112736
0.014359075
0.01453324
0.014618061
0.014631185
0.014561292
0.014419734
0.014214418
0.013941986
0.013614221
0.013232327
0.012812659
0.012368194
0.011915473
0.011467384
0.011030503
0.010597591
0.010152019
0.0096818501
0.0091856506
0.0086658282
0.0081259402
0.0075715106
0.0070085668
0.0064428172
0.0058799298
0.0053259271
0.0047863786
0.0042682245
0.0037735898
0.003311382
0.0028565762
0.0024902255
0.0022173111
0.0020539097
0.0019982655
0.0020465632
0.0021854191
0.0023968288
0.0026626999
0.0029690819
0.0033038127
0.0036562636
0.0040162758
0.0043764382
0.0047314226
0.005073988
0.0053992608
0.0057090795
0.0060063437
0.0062879827
0.0065492645
0.0067799545
0.006963964
0.0070797467
0.0071017005
0.0070015234
0.0067498913
0.0063185449
0.0056833745
0.0048287237
0.0037532607
0.0024783697
0.0010565925
-0.00041469325
-0.0017965256
-0.0028967632
-0.0035464377
-0.0035586184
-0.002958734
-0.0018057477
-0.00083931072
-0.00071826222
-0.0011348387
-0.001942287
-0.0029997549
-0.0042283086
-0.0055931475
-0.007035807
-0.0084970543
-0.0099073217
-0.011205433
-0.012335698
-0.013248836
-0.013897246
-0.014232837
-0.01420697
-0.013772105
-0.012882545
-0.011496841
-0.0095787986
-0.0070969684
-0.0040260333
-0.00034826248
0.0039484375
0.0088694687
0.014410569
0.020555665
0.027272699
0.034509129
0.042180178
0.050163401
0.058267108
0.066244084
0.073676449
0.080188594
0.085904796
0.09060696
0.093687168
0.094864793
0.093997888
0.091287606
0.087282667
0.08279757
0.078688613
0.075546943
0.073531578
0.07242703
0.071850375
0.071409064
0.070613828
0.069114629
0.067091889
0.066032634
0.067277413
0.070596633
0.075014289
0.079330673
0.082710932
0.084704615
0.085342133
0.084988211
0.084110253
0.083010374
0.081513144
0.079303637
0.075880257
0.071337379
0.065962911
0.060705695
0.055317966
0.050080034
0.044979453
0.040132614
0.035541123
0.031278741
0.027356172
0.023820477
0.020674985
0.017993734
0.01600562
0.014828673
0.014555321
0.015259155
0.016974778
0.01971716
0.02347834
0.028260943
0.033878216
0.04007642
0.046560768
0.053263629
0.060031749
0.066741433
0.073275539
0.079530555
0.085373862
0.090691109
0.095378616
0.099073398
0.101513
0.10199308
0.099244301
0.092455298
0.080720274
0.06292748
0.039064794
0.010717633
-0.014013488
-0.030059525
-0.036972511
-0.038011771
-0.033325508
-0.031943324
-0.016380649
-0.0047061937
-0.0080911953
-0.0074936624
-0.0063698623
-0.0019650095
0.0033518733
0.0069759051
0.0088841176
0.0099431772
0.010718104
0.011445685
0.012116672
0.012747727
0.013305
0.013761976
0.014107295
0.014355034
0.014530484
0.014616623
0.014630964
0.01456232
0.014421859
0.014217603
0.013946192
0.013619367
0.013238336
0.012819318
0.012375267
0.011922702
0.011474566
0.011037545
0.01060454
0.01015896
0.0096887756
0.009192456
0.0086723809
0.0081321065
0.007577143
0.0070135234
0.0064469786
0.005883204
0.005328254
0.004787727
0.0042686098
0.0037730571
0.0033101712
0.0028556074
0.0024895851
0.0022169862
0.002053904
0.0019985621
0.0020471163
0.0021861718
0.0023976898
0.0026635555
0.0029698466
0.0033044269
0.0036566951
0.0040165221
0.004376517
0.0047313633
0.0050738236
0.0053990264
0.0057088333
0.0060061456
0.0062878488
0.0065491932
0.0067799375
0.0069639763
0.0070797526
0.0071016575
0.0070013878
0.0067496197
0.0063180934
0.0056826974
0.0048277728
0.0037519881
0.002476729
0.0010545629
-0.00041708425
-0.0017990903
-0.002899225
-0.0035483442
-0.0035594146
-0.0029574161
-0.0018010552
-0.000833576
-0.0007141854
-0.0011319507
-0.0019400038
-0.0029978851
-0.0042267735
-0.0055919368
-0.0070348465
-0.0084962276
-0.009906526
-0.011204615
-0.01233487
-0.013248058
-0.013896605
-0.014232425
-0.014206873
-0.013772395
-0.012883283
-0.011498083
-0.0095805988
-0.0070993839
-0.0040291229
-0.00035209542
0.0039437763
0.0088638754
0.014403896
0.020547799
0.027263557
0.0344986
0.042168202
0.050149992
0.05825254
0.066229175
0.073661531
0.080173699
0.085889846
0.090592961
0.09367547
0.09485598
0.093992152
0.09128431
0.087280781
0.082795977
0.078686958
0.075545925
0.073532303
0.072429774
0.071854648
0.071414839
0.070621635
0.069122002
0.067093063
0.066024297
0.067263177
0.070580907
0.075000359
0.079320382
0.08270485
0.084701696
0.085341523
0.084988605
0.084111169
0.083012733
0.081518605
0.079313329
0.075893537
0.071348929
0.065959932
0.060695389
0.055301084
0.050056199
0.044948197
0.040094979
0.035498096
0.031231732
0.02730672
0.023770251
0.020625903
0.017949882
0.015971369
0.014807098
0.014549014
0.015269877
0.017003485
0.019764028
0.023542955
0.028340308
0.033967538
0.040170904
0.046658595
0.053363182
0.060131013
0.066838815
0.073369551
0.07961948
0.085455911
0.090764724
0.095438892
0.099114152
0.1015274
0.10196813
0.099169586
0.092327509
0.080542365
0.062723489
0.038890618
0.01066922
-0.013923143
-0.029915236
-0.03685172
-0.037935339
-0.033293809
-0.031927992
-0.016377035
-0.0047027468
-0.0080730027
-0.0074741137
-0.0063539844
-0.0019731513
0.0033301178
0.0069575214
0.0088699193
0.009932245
0.010707834
0.011435185
0.012106267
0.012737672
0.013295981
0.013754463
0.014101507
0.014350737
0.014527556
0.014615097
0.014630737
0.014563421
0.014424125
0.014220994
0.013950667
0.013624838
0.013244719
0.012826386
0.012382768
0.011930363
0.011482174
0.011045007
0.010611914
0.010166335
0.0096961407
0.0091996948
0.00867935
0.0081386615
0.0075831256
0.0070187808
0.0064513814
0.0058866521
0.0053306809
0.0047890989
0.0042689431
0.0037724085
0.0033087927
0.0028544813
0.002488785
0.0022165099
0.0020537602
0.0019987427
0.0020475768
0.0021868628
0.0023985216
0.0026644041
0.0029706163
0.0033050517
0.003657138
0.0040167762
0.004376598
0.0047313023
0.0050736535
0.00539878
0.0057085749
0.006005943
0.0062877201
0.0065491435
0.0067799648
0.0069640593
0.0070798571
0.0071017402
0.0070014016
0.0067495155
0.006317818
0.0056821913
0.0048269677
0.0037508081
0.0024750901
0.0010523981
-0.00041980276
-0.0018022066
-0.0029024774
-0.0035512371
-0.0035612943
-0.0029569821
-0.0017962904
-0.00082701218
-0.00070927283
-0.0011284993
-0.0019373473
-0.0029957652
-0.0042250586
-0.0055905989
-0.0070338176
-0.0084953966
-0.0099057991
-0.011203947
-0.01233428
-0.013247613
-0.013896398
-0.014232547
-0.014207402
-0.013773397
-0.01288481
-0.011500181
-0.009583318
-0.0071027774
-0.0040332472
-0.00035702099
0.0039379589
0.0088570401
0.014395882
0.020538493
0.027252857
0.034486381
0.042154392
0.050134602
0.058235887
0.066212186
0.073644667
0.080157002
0.085873027
0.090577069
0.093662153
0.094845752
0.093985091
0.091279497
0.087276824