/*--------------------------------*- C++ -*----------------------------------*\
| =========                 |                                                 |
| \\      /  F ield         | OpenFOAM: The Open Source CFD Toolbox           |
|  \\    /   O peration     | Version:  2.4.0                                 |
|   \\  /    A nd           | Web:      www.OpenFOAM.org                      |
|    \\/     M anipulation  |                                                 |
\*---------------------------------------------------------------------------*/
FoamFile
{
    version     2.0;
    format      ascii;
    class       surfaceScalarField;
    location    "250";
    object      phi;
}
// * * * * * * * * * * * * * * * * * * * * * * * * * * * * * * * * * * * * * //

dimensions      [0 3 -1 0 0 0 0];

internalField   nonuniform List<scalar> 
63640
(
5.4411413e-07
-3.695593e-08
5.4709486e-07
-2.9807249e-09
5.397626e-07
7.3322608e-09
3.7669096e-07
1.6307165e-07
1.552665e-07
2.2142447e-07
-6.5206671e-08
2.2047318e-07
-1.7763803e-07
1.1243137e-07
-1.8073961e-07
3.1015801e-09
-1.4489768e-07
-3.5841922e-08
-1.1919833e-07
-2.5699349e-08
-1.0512778e-07
-1.4070542e-08
-9.4827303e-08
-1.0300483e-08
-8.5128028e-08
-9.6992752e-09
-7.4745666e-08
-1.0382364e-08
-6.3329665e-08
-1.141597e-08
-5.1467731e-08
-1.1861962e-08
-4.020551e-08
-1.1262204e-08
-2.9688745e-08
-1.0516795e-08
-1.8948673e-08
-1.0740068e-08
-8.2159013e-09
-1.0732782e-08
2.7513872e-09
-1.0967285e-08
1.361451e-08
-1.0863122e-08
2.3971808e-08
-1.0357297e-08
3.4156975e-08
-1.0185169e-08
4.3840009e-08
-9.683036e-09
5.2672626e-08
-8.8326209e-09
5.9923388e-08
-7.2507647e-09
6.5006751e-08
-5.0833685e-09
6.7517079e-08
-2.5103317e-09
6.7194738e-08
3.2233499e-10
6.4409581e-08
2.7851524e-09
6.0523764e-08
3.8858107e-09
5.7484406e-08
3.0393584e-09
5.6615582e-08
8.6881292e-10
5.8088071e-08
-1.4724862e-09
6.1447875e-08
-3.3598138e-09
6.6149794e-08
-4.7019152e-09
7.1730437e-08
-5.5806566e-09
7.7868798e-08
-6.1383582e-09
8.4364198e-08
-6.4954148e-09
9.0914086e-08
-6.5498885e-09
9.6968997e-08
-6.0549271e-09
1.0189921e-07
-4.9302161e-09
1.0540794e-07
-3.5087452e-09
1.0730617e-07
-1.898225e-09
1.0905629e-07
-1.7501415e-09
1.0938603e-07
-3.2973262e-10
1.0160392e-07
7.7820901e-09
8.6618349e-08
1.4985566e-08
6.6934833e-08
1.9683497e-08
4.3613934e-08
2.3320887e-08
1.8159215e-08
2.5454703e-08
-7.9305861e-09
2.6089768e-08
-3.2784253e-08
2.4853673e-08
-5.4672576e-08
2.1888297e-08
-7.2351848e-08
1.7679283e-08
-8.4844346e-08
1.2492458e-08
-9.1474751e-08
6.6304196e-09
-9.2189752e-08
7.1496743e-10
-8.7692656e-08
-4.4970669e-09
-7.8857592e-08
-8.8350741e-09
-6.6467744e-08
-1.2389841e-08
-5.1769784e-08
-1.4697964e-08
-3.6352983e-08
-1.5416806e-08
-2.1452604e-08
-1.4900399e-08
-7.6663956e-09
-1.3786205e-08
5.0265082e-09
-1.2692925e-08
1.7303383e-08
-1.2276867e-08
3.0162184e-08
-1.2858818e-08
4.4670092e-08
-1.4507894e-08
6.1864175e-08
-1.7194092e-08
8.2638371e-08
-2.0774187e-08
1.0763692e-07
-2.4998543e-08
1.3716725e-07
-2.9530341e-08
1.7112833e-07
-3.396109e-08
2.0889623e-07
-3.7767902e-08
2.4912748e-07
-4.0231267e-08
2.89496e-07
-4.0368521e-08
3.2632652e-07
-3.6830536e-08
3.5428983e-07
-2.7963299e-08
3.6602202e-07
-1.1732203e-08
3.5341081e-07
1.2611213e-08
3.0962682e-07
4.378397e-08
2.3200002e-07
7.7626812e-08
1.2336585e-07
1.0863416e-07
-6.4816571e-10
1.2401402e-07
-8.6216218e-08
8.5568043e-08
-1.0425466e-07
1.8038445e-08
-9.7774836e-08
-6.4798383e-09
-1.0164162e-07
3.8667729e-09
-1.1689397e-07
1.5252336e-08
-1.3770585e-07
2.0811848e-08
-1.5918258e-07
2.1476723e-08
-1.8069878e-07
2.1516144e-08
-2.0541743e-07
2.4718658e-08
-2.3671681e-07
3.1299338e-08
-2.7709291e-07
4.0376131e-08
-3.2745973e-07
5.0366755e-08
-3.8748507e-07
6.0025367e-08
-4.5595923e-07
6.8474113e-08
-5.3125396e-07
7.5294789e-08
-6.1148351e-07
8.0229531e-08
-6.9468644e-07
8.3202944e-08
-7.7901999e-07
8.433352e-08
-8.6275688e-07
8.3736911e-08
-9.442899e-07
8.1532987e-08
-1.022177e-06
7.7887171e-08
-1.0949922e-06
7.2815159e-08
-1.1612198e-06
6.6227574e-08
-1.2193284e-06
5.8108624e-08
-1.2676158e-06
4.8287413e-08
-1.3040194e-06
3.6403555e-08
-1.326077e-06
2.2057627e-08
-1.3306375e-06
4.5604514e-09
-1.313708e-06
-1.6929399e-08
-1.2705876e-06
-4.3120464e-08
-1.1956529e-06
-7.4934654e-08
-1.0825934e-06
-1.1305951e-07
-9.2449366e-07
-1.5809977e-07
-7.1780845e-07
-2.0668523e-07
-4.7368236e-07
-2.4412607e-07
-2.0555798e-07
-2.6812444e-07
9.3276868e-08
-2.9883481e-07
4.2575706e-07
-3.3248024e-07
7.7089015e-07
-3.4513304e-07
1.0964399e-06
-3.2554976e-07
1.3626452e-06
-2.6620532e-07
1.5295893e-06
-1.6694411e-07
1.5702455e-06
-4.0656198e-08
1.4775518e-06
9.2693757e-08
1.2707075e-06
2.0684428e-07
9.9705487e-07
2.7365262e-07
7.1683807e-07
2.8021683e-07
4.829329e-07
2.3390511e-07
3.2558475e-07
1.5734822e-07
2.4047743e-07
8.5107318e-08
1.7744997e-07
6.3027478e-08
6.2312108e-08
1.1513785e-07
-1.3406989e-07
1.96382e-07
-3.4066339e-07
2.0659347e-07
-4.5337018e-07
1.1270684e-07
-4.3072623e-07
-2.2643977e-08
-2.9234188e-07
-1.3838432e-07
-8.9397329e-08
-2.0294461e-07
1.2363688e-07
-2.1303414e-07
3.0516954e-07
-1.8153266e-07
4.3235376e-07
-1.2718418e-07
5.065085e-07
-7.4154737e-08
5.5705674e-07
-5.0548226e-08
6.1378451e-07
-5.6727747e-08
6.8133802e-07
-6.7553506e-08
7.3981585e-07
-5.8477792e-08
7.6322401e-07
-2.340819e-08
7.3754006e-07
2.5683974e-08
6.4791748e-07
8.9622572e-08
5.3663429e-07
1.1128319e-07
4.1875569e-07
1.1787862e-07
2.9361142e-07
1.2514428e-07
1.68405e-07
1.2520641e-07
4.6099832e-08
1.2230518e-07
-7.2109744e-08
1.1820958e-07
-1.8488145e-07
1.1277172e-07
-2.9073576e-07
1.0585431e-07
-3.8947641e-07
9.8740661e-08
-4.8568127e-07
9.6204858e-08
-5.8269019e-07
9.7008931e-08
-6.7498255e-07
9.2292366e-08
-7.5778615e-07
8.2803609e-08
-8.2936867e-07
7.1582527e-08
-8.8869468e-07
5.9326012e-08
-9.3557962e-07
4.6884939e-08
-9.7036606e-07
3.4786447e-08
-9.921723e-07
2.1806245e-08
-9.9630324e-07
4.1309453e-09
-9.793087e-07
-1.6994544e-08
-9.4297368e-07
-3.6335011e-08
-8.9407357e-07
-4.8900109e-08
-8.3557448e-07
-5.8499088e-08
-7.68889e-07
-6.6685473e-08
-6.9590268e-07
-7.2986321e-08
-6.1787345e-07
-7.8029229e-08
-5.3543928e-07
-8.2434161e-08
-4.49908e-07
-8.5531281e-08
-3.6145993e-07
-8.8448058e-08
-2.6677415e-07
-9.4685767e-08
-1.5422281e-07
-1.1255131e-07
-1.2605399e-09
-1.5296228e-07
1.8556339e-07
-1.8682387e-07
3.9803596e-07
-2.1247262e-07
6.5706714e-07
-2.5903117e-07
9.7311354e-07
-3.160464e-07
1.3336061e-06
-3.604926e-07
1.6575856e-06
-3.2397941e-07
1.783485e-06
-1.2589942e-07
1.6567839e-06
1.2670109e-07
1.3763943e-06
2.8038955e-07
1.0444665e-06
3.319278e-07
7.7628758e-07
2.6817895e-07
5.5089184e-07
2.2539573e-07
4.3733635e-08
1.776661e-06
-1.3122531e-07
1.7626092e-06
1.1071048e-08
1.748578e-06
2.1363491e-08
1.2357526e-06
6.7589707e-07
5.4119962e-07
9.1597741e-07
-1.673928e-07
9.290656e-07
-5.4721003e-07
4.9224861e-07
-5.7278176e-07
2.8673316e-08
-4.6383569e-07
-1.4478799e-07
-3.8241005e-07
-1.0712499e-07
-3.3701147e-07
-5.9469123e-08
-3.0391324e-07
-4.3398717e-08
-2.7274773e-07
-4.0864778e-08
-2.3954734e-07
-4.3582764e-08
-2.0312899e-07
-4.7834283e-08
-1.6529609e-07
-4.9694889e-08
-1.2930097e-07
-4.7257305e-08
-9.5639457e-08
-4.4178346e-08
-6.1426159e-08
-4.4953361e-08
-2.7207192e-08
-4.4951763e-08
7.6416855e-09
-4.5816159e-08
4.2189537e-08
-4.5410972e-08
7.5102546e-08
-4.3270304e-08
1.0738489e-07
-4.2467515e-08
1.3809917e-07
-4.0397314e-08
1.6607653e-07
-3.6809988e-08
1.8909019e-07
-3.0264432e-08
2.0522378e-07
-2.1216968e-08
2.1318397e-07
-1.047053e-08
2.1208148e-07
1.424822e-09
2.0299639e-07
1.1870235e-08
1.9012622e-07
1.6755975e-08
1.7963805e-07
1.3527529e-08
1.7590002e-07
4.6068256e-09
1.7964329e-07
-5.2157571e-09
1.8948766e-07
-1.3204191e-08
2.0371465e-07
-1.8928908e-08
2.2088469e-07
-2.2750711e-08
2.399936e-07
-2.5247269e-08
2.6041542e-07
-2.6917253e-08
2.8120474e-07
-2.7339205e-08
3.0061926e-07
-2.5469475e-08
3.1664135e-07
-2.0952307e-08
3.2832581e-07
-1.5193223e-08
3.3500842e-07
-8.5808364e-09
3.4127121e-07
-8.0129534e-09
3.4261493e-07
-1.673451e-09
3.1941697e-07
3.0980024e-08
2.7345872e-07
6.0943811e-08
2.1261283e-07
8.0529363e-08
1.4000679e-07
9.5926904e-08
6.0355338e-08
1.0510614e-07
-2.1702491e-08
1.0814755e-07
-1.0023858e-07
1.0338977e-07
-1.6965287e-07
9.1302555e-08
-2.2582904e-07
7.3855462e-08
-2.6554436e-07
5.2207736e-08
-2.865761e-07
2.7662175e-08
-2.8872722e-07
2.8660419e-09
-2.7419992e-07
-1.9024333e-08
-2.4577302e-07
-3.7261979e-08
-2.0600878e-07
-5.2154075e-08
-1.5887424e-07
-6.1832516e-08
-1.0936439e-07
-6.4926656e-08
-6.1463765e-08
-6.2801051e-08
-1.7231121e-08
-5.8018846e-08
2.3332551e-08
-5.3256624e-08
6.2282735e-08
-5.1227042e-08
1.0269317e-07
-5.3269276e-08
1.4787577e-07
-5.9690475e-08
2.0107822e-07
-7.0396553e-08
2.6512263e-07
-8.4818582e-08
3.4206818e-07
-1.019441e-07
4.3293958e-07
-1.2040175e-07
5.3751702e-07
-1.3853855e-07
6.5399747e-07
-1.5424836e-07
7.7840278e-07
-1.646366e-07
9.0378121e-07
-1.6574695e-07
1.0190607e-06
-1.5211002e-07
1.1081096e-06
-1.1701223e-07
1.1483146e-06
-5.1937221e-08
1.1146283e-06
4.6297511e-08
9.8488466e-07
1.7352761e-07
7.4995257e-07
3.1255891e-07
4.1510376e-07
4.4348297e-07
2.7418104e-08
5.1169967e-07
-2.5382065e-07
3.6680679e-07
-3.3262567e-07
9.6843462e-08
-3.2761143e-07
-1.14941e-08
-3.5088033e-07
2.713566e-08
-4.0729572e-07
7.1667711e-08
-4.7947009e-07
9.2986177e-08
-5.5266162e-07
9.4668235e-08
-6.2452936e-07
9.3383819e-08
-7.0513863e-07
1.0532793e-07
-8.0526268e-07
1.3142334e-07
-9.3312745e-07
1.6824094e-07
-1.0918528e-06
2.0909198e-07
-1.2805141e-06
2.4868677e-07
-1.4952446e-06
2.8320452e-07
-1.7307553e-06
3.1080556e-07
-1.9809292e-06
3.3040339e-07
-2.2394398e-06
3.4171356e-07
-2.5003742e-06
3.4526789e-07
-2.7582461e-06
3.4160887e-07
-3.0079866e-06
3.3127347e-07
-3.2450607e-06
3.1496131e-07
-3.4650063e-06
2.9276072e-07
-3.6631131e-06
2.6433438e-07
-3.8346005e-06
2.2959598e-07
-3.9741388e-06
1.8782573e-07
-4.0753111e-06
1.3757592e-07
-4.1304723e-06
7.7218803e-08
-4.1298422e-06
3.9302879e-09
-4.0610999e-06
-8.5671595e-08
-3.9098954e-06
-1.9432502e-07
-3.6592019e-06
-3.2562818e-07
-3.2903388e-06
-4.819226e-07
-2.7829342e-06
-6.6550435e-07
-2.1289578e-06
-8.6066166e-07
-1.3619618e-06
-1.011122e-06
-5.1657151e-07
-1.1135148e-06
4.216538e-07
-1.2370601e-06
1.4545578e-06
-1.3653843e-06
2.5205433e-06
-1.4111184e-06
3.5207888e-06
-1.3257953e-06
4.3354709e-06
-1.0808874e-06
4.8445169e-06
-6.7599016e-07
4.9666851e-06
-1.6282434e-07
4.6794e-06
3.7997879e-07
4.037441e-06
8.4880331e-07
3.1822518e-06
1.1288418e-06
2.2988586e-06
1.16361e-06
1.5541751e-06
9.7858855e-07
1.0458097e-06
6.6571372e-07
7.5899532e-07
3.7192171e-07
5.3613889e-07
2.8588393e-07
1.5362776e-07
4.9764898e-07
-4.5512137e-07
8.0513113e-07
-1.0654961e-06
8.1696811e-07
-1.3773794e-06
4.2459022e-07
-1.2775176e-06
-1.2250579e-07
-8.3337465e-07
-5.8252723e-07
-2.0173907e-07
-8.3458026e-07
4.5164359e-07
-8.6641672e-07
1.0040509e-06
-7.3393999e-07
1.3903733e-06
-5.1350653e-07
1.6172592e-06
-3.0104064e-07
1.7741038e-06
-2.0739278e-07
1.9462329e-06
-2.288568e-07
2.1442032e-06
-2.6552376e-07
2.3026434e-06
-2.1691796e-07
2.3498318e-06
-7.0596639e-08
2.2486918e-06
1.2682398e-07
1.9586409e-06
3.7967347e-07
1.5974059e-06
4.7251814e-07
1.2197193e-06
4.9556524e-07
8.2068461e-07
5.2417902e-07
4.2398528e-07
5.2190576e-07
3.7548561e-08
5.0874191e-07
-3.3439638e-07
4.9015452e-07
-6.8851726e-07
4.6689261e-07
-1.0200257e-06
4.3736275e-07
-1.3290963e-06
4.078113e-07
-1.6296481e-06
3.9675659e-07
-1.9304063e-06
3.9776714e-07
-2.2148912e-06
3.7677735e-07
-2.4684848e-06
3.3639719e-07
-2.6859565e-06
2.890542e-07
-2.8644165e-06
2.3778608e-07
-3.0034763e-06
1.8594476e-07
-3.104287e-06
1.3559707e-07
-3.1637785e-06
8.1297786e-08
-3.1684499e-06
8.8023402e-09
-3.1081248e-06
-7.7319672e-08
-2.9888878e-06
-1.5557194e-07
-2.8304874e-06
-2.0730056e-07
-2.6425669e-06
-2.4641959e-07
-2.4294208e-06
-2.7983151e-07
-2.1968674e-06
-3.0553971e-07
-1.9486934e-06
-3.2620329e-07
-1.6869779e-06
-3.4414958e-07
-1.4156072e-06
-3.5690205e-07
-1.1347474e-06
-3.6930782e-07
-8.3461131e-07
-3.9482183e-07
-4.7681226e-07
-4.703503e-07
8.5693464e-09
-6.3834389e-07
5.9609363e-07
-7.7434807e-07
1.2611534e-06
-8.7753246e-07
2.0699891e-06
-1.0678669e-06
3.0523336e-06
-1.2983909e-06
4.1687859e-06
-1.4769449e-06
5.170113e-06
-1.3253066e-06
5.5829325e-06
-5.3871893e-07
5.2308703e-06
4.7876336e-07
4.3956234e-06
1.1156364e-06
3.3770139e-06
1.3505373e-06
2.5456984e-06
1.0994944e-06
1.8156392e-06
9.55455e-07
1.7698121e-07
3.2401626e-06
-2.6824287e-07
3.195072e-06
5.6161689e-08
3.1688268e-06
4.760866e-08
2.2685069e-06
1.576217e-06
1.0392095e-06
2.1452748e-06
-2.3834182e-07
2.2066169e-06
-9.5062688e-07
1.2045337e-06
-1.0206419e-06
9.8688313e-08
-8.3395227e-07
-3.3147758e-07
-6.8908294e-07
-2.5199432e-07
-6.0710718e-07
-1.4144488e-07
-5.4743444e-07
-1.0307146e-07
-4.9130374e-07
-9.6995472e-08
-4.3165497e-07
-1.0323154e-07
-3.6630485e-07
-1.1318437e-07
-2.9839296e-07
-1.1760681e-07
-2.3367904e-07
-1.119712e-07
-1.7312842e-07
-1.04729e-07
-1.1176201e-07
-1.0631977e-07
-5.0402281e-08
-1.0631151e-07
1.196639e-08
-1.0818483e-07
7.3812379e-08
-1.0725696e-07
1.3269226e-07
-1.0215019e-07
1.9034832e-07
-1.0012358e-07
2.4521704e-07
-9.5266032e-08
2.9517744e-07
-8.677039e-08
3.3633435e-07
-7.1421348e-08
3.6520836e-07
-5.009098e-08
3.7945562e-07
-2.47178e-08
3.7740181e-07
3.4786237e-09
3.6083288e-07
2.8439161e-08
3.3707759e-07
4.0511259e-08
3.1712849e-07
3.3476631e-08
3.0899418e-07
1.2741119e-08
3.1423357e-07
-1.0455147e-08
3.3048402e-07
-2.9454649e-08
3.5471117e-07
-4.3156056e-08
3.8439249e-07
-5.2432046e-08
4.1776593e-07
-5.8620699e-08
4.5374092e-07
-6.2892259e-08
4.9066655e-07
-6.426484e-08
5.2544783e-07
-6.0250778e-08
5.5448031e-07
-4.9984785e-08
5.7606471e-07
-3.6777635e-08
5.8897426e-07
-2.149039e-08
6.0117244e-07
-2.0211154e-08
6.043724e-07
-4.8734126e-09
5.6518726e-07
7.016514e-08
4.8577543e-07
1.4035564e-07
3.7979253e-07
1.8651224e-07
2.5256642e-07
2.23153e-07
1.1234924e-07
2.453233e-07
-3.2749553e-08
2.5324631e-07
-1.7219142e-07
2.4283164e-07
-2.9582182e-07
2.1493293e-07
-3.9606453e-07
1.7409818e-07
-4.6699464e-07
1.231378e-07
-5.0453489e-07
6.520244e-08
-5.0828295e-07
6.614067e-09
-4.8211644e-07
-4.5190812e-08
-4.3099345e-07
-8.8384982e-08
-3.5956857e-07
-1.2357895e-07
-2.7491716e-07
-1.4648393e-07
-1.8588812e-07
-1.539557e-07
-9.9689294e-08
-1.489999e-07
-2.0205682e-08
-1.3750246e-07
5.2448086e-08
-1.2591042e-07
1.2180233e-07
-1.2058128e-07
1.9319289e-07
-1.2465986e-07
2.7240857e-07
-1.3890614e-07
3.6516782e-07
-1.6315582e-07
4.7647511e-07
-1.9612585e-07
6.1002101e-07
-2.3549e-07
7.6770494e-07
-2.7808568e-07
9.4928231e-07
-3.2011593e-07
1.1517948e-06
-3.5676088e-07
1.3685651e-06
-3.8140688e-07
1.5878207e-06
-3.8500251e-07
1.7907014e-06
-3.5499073e-07
1.9495785e-06
-2.7588941e-07
2.0253681e-06
-1.2772677e-07
1.9743788e-06
9.7286834e-08
1.7568019e-06
3.9110443e-07
1.3548568e-06
7.1450406e-07
7.7360257e-07
1.0247372e-06
9.1425739e-08
1.1938765e-06
-4.2303909e-07
8.8127161e-07
-5.937166e-07
2.6752097e-07
-6.0902413e-07
3.8134113e-09
-6.6730825e-07
8.5419769e-08
-7.8010524e-07
1.8446468e-07
-9.1795691e-07
2.3083782e-07
-1.0557592e-06
2.3247047e-07
-1.1891241e-06
2.2674871e-07
-1.3359689e-06
2.5217273e-07
-1.5156375e-06
3.1109187e-07
-1.7431646e-06
3.9576811e-07
-2.0244218e-06
4.9034903e-07
-2.3579152e-06
5.8218026e-07
-2.736703e-06
6.6199229e-07
-3.151174e-06
7.2527658e-07
-3.5902315e-06
7.6946082e-07
-4.0424545e-06
7.9393662e-07
-4.4972202e-06
8.0003359e-07
-4.9447524e-06
7.891411e-07
-5.3760738e-06
7.6259484e-07
-5.7831735e-06
7.22061e-07
-6.1582065e-06
6.6779372e-07
-6.4929356e-06
5.990635e-07
-6.7789761e-06
5.1563646e-07
-7.0069666e-06
4.158162e-07
-7.1656872e-06
2.9629658e-07
-7.2418121e-06
1.5334365e-07
-7.2182283e-06
-1.9653457e-08
-7.0735822e-06
-2.3031773e-07
-6.7833043e-06
-4.8460289e-07
-6.3184547e-06
-7.9047779e-07
-5.6477334e-06
-1.1526439e-06
-4.737539e-06
-1.5756987e-06
-3.577227e-06
-2.0209738e-06
-2.2226422e-06
-2.3657068e-06
-7.2712263e-07
-2.6090344e-06
9.2544939e-07
-2.8896321e-06
2.7301232e-06
-3.1700582e-06
4.584014e-06
-3.2650092e-06
6.3177318e-06
-3.0595131e-06
7.7274407e-06
-2.4905962e-06
8.6088283e-06
-1.5573778e-06
8.8225881e-06
-3.7658412e-07
8.3269795e-06
8.7558739e-07
7.2096484e-06
1.9661344e-06
5.7084669e-06
2.6300233e-06
4.1433538e-06
2.7287232e-06
2.8106567e-06
2.3112856e-06
1.8876583e-06
1.5887122e-06
1.3490685e-06
9.1051153e-07
9.1826642e-07
7.1668603e-07
2.153965e-07
1.2005189e-06
-8.4559339e-07
1.866121e-06
-1.8681145e-06
1.8394892e-06
-2.3589498e-06
9.1542557e-07
-2.1430443e-06
-3.3841127e-07
-1.3463852e-06
-1.3791864e-06
-2.4045455e-07
-1.940511e-06
8.9023505e-07
-1.9971063e-06
1.8402134e-06
-1.6839184e-06
2.5040853e-06
-1.1773783e-06
2.8965347e-06
-6.9349005e-07
3.1697777e-06
-4.8063577e-07
3.4634886e-06
-5.2256763e-07
3.7901737e-06
-5.9220886e-07
4.0327762e-06
-4.5952041e-07
4.0763535e-06
-1.1417397e-07
3.8672919e-06
3.3588554e-07
3.3399896e-06
9.0697583e-07
2.6860793e-06
1.1264284e-06
2.0074862e-06
1.1741584e-06
1.2945714e-06
1.2370938e-06
5.8901845e-07
1.2274587e-06
-9.6224437e-08
1.1939848e-06
-7.5374507e-07
1.1476752e-06
-1.3786672e-06
1.0918148e-06
-1.9626798e-06
1.0213753e-06
-2.5069821e-06
9.5211367e-07
-3.0354756e-06
9.2525011e-07
-3.5616662e-06
9.2395775e-07
-4.0572226e-06
8.7233373e-07
-4.4968734e-06
7.7604801e-07
-4.8716343e-06
6.6381508e-07
-5.1767914e-06
5.4294318e-07
-5.4118609e-06
4.2101428e-07
-5.5788429e-06
3.0257905e-07
-5.6720552e-06
1.7451015e-07
-5.6689065e-06
5.6535686e-09
-5.5524452e-06
-1.9378094e-07
-5.3339669e-06
-3.740502e-07
-5.0468583e-06
-4.9440923e-07
-4.7082663e-06
-5.8501152e-07
-4.3256784e-06
-6.6241941e-07
-3.9091839e-06
-7.2203423e-07
-3.4653027e-06
-7.7008451e-07
-2.9977344e-06
-8.1171788e-07
-2.5130061e-06
-8.4163026e-07
-2.0109597e-06
-8.713543e-07
-1.4745451e-06
-9.3123636e-07
-8.3350306e-07
-1.1113923e-06
3.4497101e-08
-1.506344e-06
1.0778606e-06
-1.8177115e-06
2.2536578e-06
-2.0533297e-06
3.6792689e-06
-2.493478e-06
5.4023402e-06
-3.0214621e-06
7.3510987e-06
-3.4257034e-06
9.0952073e-06
-3.0694152e-06
9.8425384e-06
-1.28605e-06
9.2836199e-06
1.0376818e-06
7.8746957e-06
2.5245606e-06
6.1165734e-06
3.1086595e-06
4.6585288e-06
2.557539e-06
3.3529876e-06
2.2609962e-06
4.268238e-07
4.9662482e-06
-4.2934814e-07
4.8813994e-06
1.410105e-07
4.8267352e-06
1.0227289e-07
3.5042226e-06
2.8987296e-06
1.6731311e-06
3.9763663e-06
-2.6305722e-07
4.1428052e-06
-1.3843465e-06
2.325823e-06
-1.5278459e-06
2.4218778e-07
-1.2604147e-06
-5.9890881e-07
-1.0441131e-06
-4.6829594e-07
-9.1977139e-07
-2.6578657e-07
-8.2925504e-07
-1.9358781e-07
-7.4426794e-07
-1.8198257e-07
-6.5413904e-07
-1.9336045e-07
-5.5552374e-07
-2.1179964e-07
-4.5301122e-07
-2.2011936e-07
-3.551928e-07
-2.097896e-07
-2.6364881e-07
-1.9627303e-07
-1.7107896e-07
-1.9888961e-07
-7.8598971e-08
-1.9879151e-07
1.5269403e-08
-2.020532e-07
1.0835181e-07
-2.0033937e-07
1.9691257e-07
-1.9071094e-07
2.8351173e-07
-1.8672275e-07
3.6592213e-07
-1.7767643e-07
4.4096402e-07
-1.6181229e-07
5.0286699e-07
-1.3332432e-07
5.4635167e-07
-9.3575668e-08
5.6782883e-07
-4.6194968e-08
5.6465668e-07
6.6507743e-09
5.392988e-07
5.3797028e-08
5.0251082e-07
7.7299226e-08
4.7076137e-07
6.5226078e-08
4.5637213e-07
2.7130345e-08
4.6205974e-07
-1.6142749e-08
4.8445328e-07
-5.1848203e-08
5.1905793e-07
-7.7760705e-08
5.6215453e-07
-9.5528669e-08
6.1114344e-07
-1.0760961e-07
6.6443016e-07
-1.1617899e-07
7.1958965e-07
-1.1942433e-07
7.7199833e-07
-1.1265948e-07
8.1625024e-07
-9.4236702e-08
8.4976068e-07
-7.0288089e-08
8.706667e-07
-4.2396424e-08
8.9047913e-07
-4.0023598e-08
8.9677413e-07
-1.1168422e-08
8.4124501e-07
1.2569424e-07
7.2613969e-07
2.5546095e-07
5.7111555e-07
3.4153635e-07
3.8387618e-07
4.1039235e-07
1.7650013e-07
4.5269932e-07
-3.9090969e-08
4.6883737e-07
-2.4716943e-07
4.509101e-07
-4.3225598e-07
4.0001944e-07
-5.8264723e-07
3.2448944e-07
-6.8919547e-07
2.29686e-07
-7.4562184e-07
1.2162881e-07
-7.5123758e-07
1.2229777e-08
-7.1177713e-07
-8.4651227e-08
-6.3467103e-07
-1.654911e-07
-5.2699431e-07
-2.3125567e-07
-3.9934147e-07
-2.7413677e-07
-2.6490827e-07
-2.8838891e-07
-1.3466126e-07
-2.7924693e-07
-1.4719463e-08
-2.5744426e-07
9.4568374e-08
-2.3519828e-07
1.9829999e-07
-2.2431289e-07
3.0425132e-07
-2.3061121e-07
4.2091996e-07
-2.5557476e-07
5.5676186e-07
-2.9899772e-07
7.192318e-07
-3.5859579e-07
9.1388755e-07
-4.3014575e-07
1.143684e-06
-5.0788216e-07
1.4084716e-06
-5.8490349e-07
1.7041894e-06
-6.5247877e-07
2.0214333e-06
-6.9865082e-07
2.3434599e-06
-7.0702909e-07
2.6433002e-06
-6.5483104e-07
2.8811978e-06
-5.1378696e-07
3.0004979e-06
-2.4702695e-07
2.9371082e-06
1.6067652e-07
2.6313499e-06
6.9686273e-07
2.0539771e-06
1.2918769e-06
1.207203e-06
1.8715112e-06
1.9876982e-07
2.2023097e-06
-5.9004749e-07
1.6700889e-06
-8.8889255e-07
5.6636603e-07
-9.4908016e-07
6.4001001e-08
-1.0621395e-06
1.9847907e-07
-1.2498002e-06
3.7212541e-07
-1.4701594e-06
4.5119693e-07
-1.6873664e-06
4.4967751e-07
-1.8949078e-06
4.3428995e-07
-2.1195645e-06
4.7682951e-07
-2.3905888e-06
5.8211608e-07
-2.7309675e-06
7.3614679e-07
-3.1499218e-06
9.0930331e-07
-3.645389e-06
1.0776475e-06
-4.2068754e-06
1.2234787e-06
-4.8196988e-06
1.3381e-06
-5.4669503e-06
1.4167123e-06
-6.131315e-06
1.4583014e-06
-6.7967728e-06
1.4654913e-06
-7.4486978e-06
1.4410661e-06
-8.0737449e-06
1.3876419e-06
-8.6600393e-06
1.3083554e-06
-9.1960109e-06
1.2037653e-06
-9.669571e-06
1.0726237e-06
-1.0068388e-05
9.1445344e-07
-1.0378683e-05
7.2611164e-07
-1.0584016e-05
5.0162888e-07
-1.0664912e-05
2.3423965e-07
-1.0596242e-05
-8.8323394e-08
-1.0347059e-05
-4.7950045e-07
-9.882249e-06
-9.4941298e-07
-9.1607626e-06
-1.5119642e-06
-8.1387046e-06
-2.174702e-06
-6.770015e-06
-2.9443882e-06
-5.0428066e-06
-3.7481822e-06
-3.0337764e-06
-4.3747369e-06
-8.1421607e-07
-4.8285948e-06
1.6262823e-06
-5.3301304e-06
4.2712294e-06
-5.8150054e-06
6.9771655e-06
-5.9709452e-06
9.5017475e-06
-5.5840952e-06
1.1554459e-05
-4.5433076e-06
1.2843298e-05
-2.8462169e-06
1.3166071e-05
-6.9935689e-07
1.2456491e-05
1.5851675e-06
1.0830046e-05
3.5925787e-06
8.6204223e-06
4.8396474e-06
6.2910351e-06
5.0581104e-06
4.2840362e-06
4.3182844e-06
2.8712825e-06
3.0014659e-06
2.0199631e-06
1.761831e-06
1.324865e-06
1.4117841e-06
2.4543799e-07
2.2799459e-06
-1.3050933e-06
3.4166523e-06
-2.7418158e-06
3.2762117e-06
-3.3846493e-06
1.5582592e-06
-3.0096397e-06
-7.1342097e-07
-1.8117634e-06
-2.5770626e-06
-1.8635539e-07
-3.565919e-06
1.4567905e-06
-3.6402521e-06
2.8295203e-06
-3.0566481e-06
3.7888672e-06
-2.1367252e-06
4.3598158e-06
-1.2644386e-06
4.7585979e-06
-8.7941779e-07
5.1773798e-06
-9.4134958e-07
5.6257818e-06
-1.0406108e-06
5.930213e-06
-7.6395162e-07
5.9347541e-06
-1.1871506e-07
5.5788763e-06
6.9176341e-07
4.7715413e-06
1.7143108e-06
3.7780693e-06
2.1199004e-06
2.7524296e-06
2.199798e-06
1.6817393e-06
2.3077841e-06
6.263452e-07
2.2828528e-06
-3.9502167e-07
2.2153517e-06
-1.3721787e-06
2.1248322e-06
-2.299117e-06
2.018753e-06
-3.1639081e-06
1.8861664e-06
-3.9693411e-06
1.7575467e-06
-4.749722e-06
1.7056309e-06
-5.5227111e-06
1.6969469e-06
-6.2471397e-06
1.5967624e-06
-6.8864785e-06
1.4153868e-06
-7.4278387e-06
1.2051753e-06
-7.8648086e-06
9.7991317e-07
-8.1970059e-06
7.532115e-07
-8.4272773e-06
5.3285052e-07
-8.5471869e-06
2.9441978e-07
-8.5247513e-06
-1.6782073e-08
-8.3365109e-06
-3.8202132e-07
-7.9997493e-06
-7.1081184e-07
-7.5623437e-06
-9.318148e-07
-7.0494821e-06
-1.0978731e-06
-6.4722303e-06
-1.2396712e-06
-5.8452514e-06
-1.3490131e-06
-5.1779884e-06
-1.4373474e-06
-4.4758843e-06
-1.513822e-06
-3.7481362e-06
-1.5693784e-06
-2.9940171e-06
-1.6254734e-06
-2.1880878e-06
-1.7371656e-06
-1.2226944e-06
-2.0767858e-06
8.1435623e-08
-2.810474e-06
1.6381994e-06
-3.3744752e-06
3.3841675e-06
-3.7992978e-06
5.4940649e-06
-4.6033755e-06
8.031957e-06
-5.5593541e-06
1.0887913e-05
-6.2816589e-06
1.344284e-05
-5.6243425e-06
1.4579276e-05
-2.4224865e-06
1.3844418e-05
1.7725398e-06
1.1854578e-05
4.5144008e-06
9.3136566e-06
5.6495811e-06
7.161477e-06
4.7097186e-06
5.2158708e-06
4.2066024e-06
8.3755163e-07
6.9934445e-06
-5.8857214e-07
6.8577511e-06
2.7670392e-07
6.7537359e-06
2.0628803e-07
4.9749043e-06
4.6775612e-06
2.4716738e-06
6.4795968e-06
-2.2215686e-07
6.8366359e-06
-1.8430812e-06
3.9467473e-06
-2.0981411e-06
4.9724773e-07
-1.7490584e-06
-9.4799156e-07
-1.4530498e-06
-7.6430454e-07
-1.279938e-06
-4.3889831e-07
-1.1538035e-06
-3.1972234e-07
-1.0356294e-06
-3.0015671e-07
-9.1055829e-07
-3.1843152e-07
-7.7390371e-07
-3.484542e-07
-6.3181117e-07
-3.6221192e-07
-4.9604627e-07
-3.4555449e-07
-3.6897521e-07
-3.2334412e-07
-2.4074485e-07
-3.2711996e-07
-1.1277817e-07
-3.267582e-07
1.6947651e-08
-3.3177901e-07
1.4558205e-07
-3.2897376e-07
2.6789206e-07
-3.1302095e-07
3.8733424e-07
-3.0616493e-07
5.0098965e-07
-2.9133185e-07
6.0451249e-07
-2.6533513e-07
6.9003854e-07
-2.1885038e-07
7.5022817e-07
-1.5376531e-07
7.8002323e-07
-7.5990025e-08
7.7560615e-07
1.1067839e-08
7.4004667e-07
8.9356502e-08
6.8781711e-07
1.2952878e-07
6.4155673e-07
1.1148645e-07
6.1866363e-07
5.0023437e-08
6.234231e-07
-2.0902217e-08
6.5146264e-07
-7.9887759e-08
6.9668021e-07
-1.2297827e-07
7.5404193e-07
-1.528904e-07
8.2002843e-07
-1.7359611e-07
8.9250061e-07
-1.8865118e-07
9.6818506e-07
-1.9510879e-07
1.0407431e-06
-1.8521755e-07
1.1027316e-06
-1.5622517e-07
1.1505329e-06
-1.1808939e-07
1.1815663e-06
-7.3429873e-08
1.2110184e-06
-6.9475665e-08
1.2219832e-06
-2.2133293e-08
1.1501108e-06
1.9756662e-07
9.9737462e-07
4.0819715e-07
7.8956903e-07
5.4934193e-07
5.3693418e-07
6.6302718e-07
2.5564853e-07
7.3398496e-07
-3.8217431e-08
7.6270329e-07
-3.2315558e-07
7.3584825e-07
-5.7750337e-07
6.5436721e-07
-7.846608e-07
5.3164688e-07
-9.3167229e-07
3.7669745e-07
-1.009666e-06
1.9962257e-07
-1.017568e-06
2.013171e-08
-9.6315287e-07
-1.3906633e-07
-8.566297e-07
-2.7201428e-07
-7.0784008e-07
-3.8004528e-07
-5.3133129e-07
-4.5064557e-07
-3.4517711e-07
-4.7454309e-07
-1.6469936e-07
-4.597247e-07
1.2842723e-09
-4.2342789e-07
1.5205062e-07
-3.8596464e-07
2.9434998e-07
-3.6661225e-07
4.3856099e-07
-3.7482223e-07
5.9611608e-07
-4.1312984e-07
7.784782e-07
-4.8135984e-07
9.958316e-07
-5.7594918e-07
1.2558558e-06
-6.9016999e-07
1.5627673e-06
-8.1479365e-07
1.9166608e-06
-9.3879693e-07
2.3124601e-06
-1.0482781e-06
2.7380489e-06
-1.1242397e-06
3.1716191e-06
-1.1405993e-06
3.5778501e-06
-1.0610621e-06
3.9043282e-06
-8.4026507e-07
4.0758431e-06
-4.1854187e-07
4.0061941e-06
2.3032557e-07
3.6135604e-06
1.0894964e-06
2.8541236e-06
2.0513136e-06
1.7241098e-06
3.0015251e-06
3.5764235e-07
3.5687771e-06
-7.5008157e-07
2.7778128e-06
-1.219653e-06
1.0359375e-06
-1.3554139e-06
1.9976185e-07
-1.5478148e-06
3.9088e-07
-1.8324586e-06
6.567692e-07
-2.1548536e-06
7.7359185e-07
-2.4682613e-06
7.6308518e-07
-2.7642263e-06
7.3025493e-07
-3.0795449e-06
7.9214812e-07
-3.454849e-06
9.5742019e-07
-3.9222898e-06
1.2035875e-06
-4.495061e-06
1.4820745e-06
-5.170496e-06
1.7530824e-06
-5.9339974e-06
1.9869801e-06
-6.7649684e-06
2.169071e-06
-7.6397694e-06
2.2915133e-06
-8.5343285e-06
2.3528605e-06
-9.4265012e-06
2.3576639e-06
-1.0296238e-05
2.3108026e-06
-1.1125366e-05
2.2167698e-06
-1.1897768e-05
2.080758e-06
-1.2597826e-05
1.9038229e-06
-1.3209297e-05
1.6840951e-06
-1.3715585e-05
1.4207412e-06
-1.4098145e-05
1.1086715e-06
-1.4334953e-05
7.3843705e-07
-1.4399944e-05
2.9923039e-07
-1.4259381e-05
-2.2888549e-07
-1.38724e-05
-8.6648233e-07
-1.319329e-05
-1.6285227e-06
-1.2169038e-05
-2.5362161e-06
-1.0743551e-05
-3.6001887e-06
-8.8594109e-06
-4.8285286e-06
-6.5044409e-06
-6.1031523e-06
-3.7735028e-06
-7.105675e-06
-7.5625342e-07
-7.8458442e-06
2.5420651e-06
-8.6284489e-06
6.090606e-06
-9.3635463e-06
9.7084031e-06
-9.5887423e-06
1.3079143e-05
-8.9548351e-06
1.5824593e-05
-7.2887579e-06
1.7562243e-05
-4.583867e-06
1.8021008e-05
-1.1581212e-06
1.7102736e-05
2.503439e-06
1.4943112e-05
5.7522033e-06
1.1967393e-05
7.815366e-06
8.7887214e-06
8.2367819e-06
6.0118628e-06
7.095143e-06
4.0212204e-06
4.9921084e-06
2.7834408e-06
2.9996106e-06
1.7584571e-06
2.4367678e-06
2.4290502e-07
3.795498e-06
-1.8306268e-06
5.4901841e-06
-3.6756606e-06
5.1212455e-06
-4.4367166e-06
2.3193152e-06
-3.8557173e-06
-1.2944203e-06
-2.2068598e-06
-4.2259201e-06
-1.8549215e-08
-5.7542296e-06
2.1692429e-06
-5.8280442e-06
3.9881278e-06
-4.875533e-06
5.2603699e-06
-3.4089674e-06
6.0227531e-06
-2.0268218e-06
6.5550863e-06
-1.411751e-06
7.0990302e-06
-1.4852934e-06
7.6561438e-06
-1.5977244e-06
7.9918738e-06
-1.0996815e-06
7.9125111e-06
-3.935238e-08
7.3626854e-06
1.2415891e-06
6.2266586e-06
2.8503377e-06
4.8415292e-06
3.5050298e-06
3.4177624e-06
3.6235648e-06
1.9412247e-06
3.7843219e-06
4.9169736e-07
3.7323801e-06
-9.0546911e-07
3.6125182e-06
-2.2382124e-06
3.4575755e-06
-3.4998808e-06
3.2804214e-06
-4.6747859e-06
3.0610716e-06
-5.7679268e-06
2.8506876e-06
-6.8241549e-06
2.761859e-06
-7.864494e-06
2.7372861e-06
-8.8340647e-06
2.5663331e-06
-9.6847002e-06
2.2660223e-06
-1.0399542e-05
1.9200173e-06
-1.0970675e-05
1.5510464e-06
-1.139813e-05
1.180666e-06
-1.1685584e-05
8.2030447e-07
-1.1821794e-05
4.3062946e-07
-1.1765263e-05
-7.3312893e-08
-1.1486509e-05
-6.6077514e-07
-1.1009692e-05
-1.1876289e-06
-1.0397808e-05
-1.5436987e-06
-9.6845971e-06
-1.8110839e-06
-8.8850959e-06
-2.0391725e-06
-8.0187868e-06
-2.2153223e-06
-7.0981889e-06
-2.3579453e-06
-6.1305931e-06
-2.4814178e-06
-5.1278026e-06
-2.5721689e-06
-4.0882405e-06
-2.6650355e-06
-2.9768178e-06
-2.8485883e-06
-1.6420552e-06
-3.4115483e-06
1.5579711e-07
-4.6083264e-06
2.2859811e-06
-5.5046591e-06
4.6630524e-06
-6.1763691e-06
7.5251898e-06
-7.4655128e-06
1.0950589e-05
-8.9847534e-06
1.4785493e-05
-1.0116563e-05
1.821816e-05
-9.0570091e-06
1.9804704e-05
-4.0090308e-06
1.8938709e-05
2.6385353e-06
1.6375754e-05
7.0773561e-06
1.3020145e-05
9.0051898e-06
1.0108672e-05
7.6211912e-06
7.4587056e-06
6.8565691e-06
1.4620367e-06
9.3656319e-06
-7.1175146e-07
9.1648245e-06
4.7751134e-07
8.9852345e-06
3.8587799e-07
6.7166245e-06
6.9461713e-06
3.4682401e-06
9.7279812e-06
-9.1491344e-08
1.0396367e-05
-2.3187367e-06
6.1739926e-06
-2.7347959e-06
9.1330691e-07
-2.3060322e-06
-1.3767552e-06
-1.9219074e-06
-1.1484294e-06
-1.6929834e-06
-6.6782228e-07
-1.5259086e-06
-4.8679714e-07
-1.3697447e-06
-4.5632063e-07