/*--------------------------------*- C++ -*----------------------------------*\
  =========                 |
  \\      /  F ield         | OpenFOAM: The Open Source CFD Toolbox
   \\    /   O peration     | Website:  https://openfoam.org
    \\  /    A nd           | Version:  7
     \\/     M anipulation  |
\*---------------------------------------------------------------------------*/
FoamFile
{
    version     2.0;
    format      ascii;
    class       volScalarField;
    location    "20000";
    object      Q4;
}
// * * * * * * * * * * * * * * * * * * * * * * * * * * * * * * * * * * * * * //

dimensions      [0 0 0 0 0 0 0];

internalField   nonuniform List<scalar> 
32000
(
0.42430467
0.4159614
0.41339435
0.41535924
0.41510186
0.41460629
0.41389355
0.41397543
0.41428574
0.41438442
0.41443545
0.41444776
0.41445373
0.41445774
0.41446137
0.41446517
0.41446889
0.41447127
0.41447274
0.41447395
0.41447471
0.41447528
0.4144756
0.41447559
0.41447523
0.41447424
0.41447273
0.41447115
0.41446952
0.41446785
0.41446638
0.41446525
0.41446465
0.41446484
0.41446597
0.4144678
0.41446949
0.41447116
0.4144731
0.41447534
0.41447761
0.41448035
0.41448261
0.41448569
0.41448779
0.41449319
0.41449655
0.41449209
0.41449119
0.41448411
0.41447898
0.41447122
0.4144645
0.41445674
0.41444946
0.41444177
0.41443425
0.41442655
0.4144189
0.41441116
0.41440344
0.41439571
0.41438804
0.41438043
0.41437293
0.41436559
0.41435846
0.41435158
0.414345
0.41433875
0.41433286
0.41432736
0.41432228
0.41431765
0.41431348
0.41430979
0.41430661
0.41430393
0.41430176
0.41430011
0.41429896
0.41429831
0.41429815
0.41429846
0.41429923
0.41430043
0.41430205
0.41430407
0.41430645
0.41430917
0.41431219
0.4143155
0.41431907
0.41432285
0.41432683
0.41433098
0.41433526
0.41433965
0.41434415
0.41434869
0.41435327
0.41435787
0.41436248
0.41436706
0.41437161
0.41437611
0.41438055
0.41438492
0.4143892
0.41439339
0.41439748
0.41440147
0.41440535
0.41440911
0.41441274
0.41441626
0.41441965
0.41442291
0.41442604
0.41442905
0.41443192
0.41443468
0.41443731
0.41443983
0.41444222
0.4144445
0.41444667
0.41444872
0.41445067
0.41445251
0.41445426
0.41445591
0.41445746
0.41445892
0.4144603
0.41446159
0.4144628
0.41446392
0.41446497
0.41446593
0.41446684
0.41446763
0.4144684
0.41446903
0.41446966
0.41447012
0.4144706
0.41447085
0.41447119
0.41447117
0.41447134
0.41447093
0.41447087
0.41446993
0.4144688
0.41446865
0.41446818
0.41446841
0.41446858
0.41446925
0.41447002
0.41447126
0.41447274
0.41447465
0.41447684
0.41447929
0.41448152
0.41448291
0.41448268
0.41448001
0.41447376
0.4144633
0.41444743
0.41442727
0.41440435
0.41438063
0.41435158
0.41431292
0.41426712
0.41420575
0.41412657
0.414014
0.41386049
0.41360057
0.41316912
0.41257456
0.41173021
0.41056343
0.40882316
0.40643778
0.40274712
0.39859904
0.39355781
0.39492247
0.40311568
0.41257388
0.41555609
0.41746166
0.41602688
0.41605804
0.44448534
0.4192645
0.41121523
0.41724254
0.41644558
0.41517189
0.41289073
0.41300886
0.41390709
0.41420128
0.41435476
0.41439224
0.41441037
0.41442251
0.41443347
0.41444493
0.41445622
0.41446347
0.41446794
0.41447163
0.41447397
0.41447573
0.41447671
0.41447669
0.41447561
0.41447259
0.41446801
0.41446318
0.41445822
0.41445317
0.4144487
0.41444524
0.41444343
0.41444397
0.41444736
0.41445291
0.41445803
0.41446313
0.41446904
0.4144759
0.41448286
0.41449137
0.41449848
0.41450835
0.4145152
0.41453324
0.41454295
0.41452788
0.4145249
0.41450289
0.41448711
0.41446335
0.41444285
0.41441925
0.41439714
0.41437381
0.41435106
0.41432777
0.41430466
0.41428131
0.41425805
0.41423477
0.41421166
0.41418877
0.41416626
0.41414422
0.41412283
0.41410222
0.41408251
0.4140638
0.4140462
0.41402979
0.41401466
0.41400086
0.41398848
0.41397755
0.41396812
0.41396022
0.41395387
0.41394905
0.41394575
0.41394396
0.41394361
0.41394469
0.41394715
0.41395089
0.41395589
0.41396208
0.41396933
0.41397761
0.41398681
0.41399684
0.41400764
0.41401908
0.4140311
0.41404364
0.41405656
0.41406982
0.41408336
0.41409705
0.41411084
0.41412472
0.41413857
0.41415236
0.41416606
0.41417959
0.41419293
0.41420606
0.41421893
0.41423152
0.41424381
0.41425578
0.41426742
0.41427871
0.41428963
0.41430018
0.41431034
0.41432013
0.41432953
0.41433854
0.41434717
0.41435543
0.41436332
0.41437085
0.41437803
0.41438486
0.41439135
0.4143975
0.41440334
0.41440886
0.41441408
0.41441901
0.41442366
0.41442803
0.41443214
0.41443598
0.4144396
0.41444294
0.41444609
0.41444894
0.41445164
0.41445401
0.41445628
0.41445817
0.41446002
0.41446138
0.4144628
0.41446355
0.41446453
0.41446448
0.41446493
0.41446373
0.41446348
0.41446069
0.41445737
0.41445694
0.41445563
0.41445638
0.41445696
0.41445905
0.41446146
0.41446524
0.41446976
0.41447553
0.41448212
0.41448938
0.41449589
0.41449977
0.41449869
0.41449017
0.41447085
0.41443885
0.4143906
0.41432958
0.41426035
0.41418866
0.41410077
0.41398403
0.41384571
0.41366053
0.41342167
0.41308251
0.41261984
0.41183829
0.41054659
0.40877052
0.40625369
0.40278122
0.39761809
0.39055617
0.37969151
0.36752158
0.35287225
0.35685538
0.3807423
0.40875753
0.41780746
0.42400056
0.41935485
0.42010776
0.4658271
0.42303112
0.40895472
0.41930688
0.41792618
0.41609406
0.4120419
0.41205073
0.41351694
0.41401036
0.41426988
0.41433402
0.41436492
0.41438555
0.41440413
0.41442356
0.41444277
0.41445515
0.41446281
0.41446913
0.41447315
0.41447617
0.41447788
0.41447785
0.41447604
0.4144709
0.41446309
0.41445485
0.41444639
0.41443779
0.41443017
0.41442426
0.41442115
0.41442203
0.41442775
0.41443716
0.41444589
0.41445459
0.41446468
0.41447644
0.41448842
0.41450319
0.41451565
0.41453323
0.41454558
0.41457868
0.41459444
0.41456661
0.41456117
0.41452293
0.41449575
0.41445502
0.41442
0.41437976
0.41434214
0.41430249
0.41426387
0.41422436
0.4141852
0.41414567
0.41410633
0.41406697
0.41402795
0.41398932
0.41395135
0.41391421
0.4138782
0.41384352
0.41381038
0.41377895
0.41374942
0.41372191
0.41369656
0.41367349
0.4136528
0.41363459
0.41361891
0.41360581
0.41359532
0.41358742
0.41358208
0.41357929
0.41357893
0.41358096
0.41358532
0.41359184
0.41360045
0.41361107
0.41362348
0.41363761
0.41365326
0.41367032
0.41368866
0.41370808
0.41372846
0.41374969
0.41377158
0.41379402
0.41381692
0.41384006
0.41386338
0.41388682
0.41391021
0.41393351
0.41395663
0.41397947
0.41400199
0.41402414
0.41404584
0.41406707
0.4140878
0.41410798
0.4141276
0.41414662
0.41416502
0.4141828
0.41419992
0.4142164
0.41423223
0.4142474
0.41426193
0.41427584
0.41428912
0.41430179
0.41431387
0.41432535
0.41433627
0.41434662
0.41435643
0.41436571
0.41437449
0.41438276
0.41439057
0.4143979
0.41440481
0.41441125
0.41441732
0.41442292
0.41442818
0.41443296
0.41443748
0.41444145
0.41444524
0.41444839
0.41445146
0.41445373
0.41445609
0.41445732
0.41445892
0.41445884
0.41445954
0.41445756
0.41445705
0.41445237
0.41444691
0.4144462
0.41444415
0.41444547
0.41444659
0.41445019
0.41445438
0.41446085
0.41446856
0.41447832
0.41448943
0.41450155
0.41451222
0.41451833
0.41451592
0.41450083
0.41446741
0.41441254
0.41433027
0.41422658
0.41410916
0.41398747
0.41383818
0.41364012
0.41340543
0.41309141
0.41268638
0.41211179
0.41132751
0.41000504
0.40782767
0.40483991
0.40061405
0.39479268
0.38616252
0.37438636
0.35636724
0.33626811
0.31229875
0.3189111
0.35819087
0.40484192
0.42021839
0.43134771
0.42302627
0.42527042
0.4884502
0.42730871
0.40660707
0.42156647
0.41955755
0.41742512
0.41138597
0.41111148
0.41311685
0.41381193
0.41418078
0.41427307
0.41431736
0.41434684
0.41437334
0.41440103
0.41442851
0.41444631
0.41445733
0.41446643
0.41447224
0.41447662
0.41447911
0.4144791
0.41447652
0.41446917
0.41445796
0.41444614
0.41443402
0.41442169
0.41441076
0.41440228
0.41439778
0.41439898
0.41440708
0.41442052
0.41443303
0.41444551
0.41446001
0.41447695
0.41449431
0.41451585
0.41453423
0.41456055
0.41457928
0.41463015
0.41465157
0.41460852
0.41460017
0.41454431
0.41450494
0.41444622
0.4143959
0.41433821
0.41428437
0.4142277
0.41417257
0.41411623
0.41406045
0.41400418
0.41394823
0.41389231
0.4138369
0.41378209
0.41372826
0.41367566
0.41362468
0.41357563
0.41352881
0.41348445
0.41344279
0.41340403
0.41336836
0.41333594
0.41330693
0.41328142
0.41325952
0.4132413
0.41322677
0.4132159
0.41320868
0.41320506
0.41320488
0.41320808
0.41321457
0.41322411
0.41323661
0.41325193
0.41326978
0.41329006
0.41331248
0.41333686
0.41336306
0.41339076
0.41341982
0.41345007
0.41348122
0.41351315
0.41354571
0.41357861
0.41361174
0.41364504
0.41367826
0.41371133
0.41374415
0.41377655
0.41380849
0.41383991
0.41387068
0.41390078
0.41393016
0.41395876
0.41398656
0.4140135
0.41403956
0.41406474
0.41408898
0.41411231
0.41413471
0.41415619
0.41417676
0.41419643
0.41421522
0.41423314
0.41425022
0.41426645
0.41428188
0.41429651
0.41431037
0.41432348
0.41433587
0.41434755
0.41435858
0.41436892
0.41437867
0.41438775
0.4143963
0.41440418
0.41441159
0.41441832
0.41442465
0.41443024
0.41443555
0.41443997
0.41444426
0.41444744
0.41445071
0.41445244
0.41445462
0.41445452
0.41445541
0.41445265
0.41445181
0.41444524
0.41443769
0.41443672
0.41443403
0.414436
0.4144378
0.41444303
0.41444915
0.41445844
0.4144695
0.41448339
0.41449913
0.4145161
0.41453078
0.41453879
0.41453449
0.41451202
0.41446338
0.41438426
0.41426627
0.41411812
0.41395064
0.41377696
0.41356371
0.41328117
0.41294636
0.41249861
0.41192117
0.41110277
0.40998514
0.40810407
0.40501921
0.40079524
0.39483296
0.38663345
0.37451561
0.35802332
0.33293114
0.30506932
0.2721494
0.28134803
0.33558193
0.40083456
0.42278715
0.43956236
0.42707491
0.43168737
0.5125146
0.43214165
0.40416455
0.42403477
0.42135397
0.41921544
0.41096704
0.41020202
0.41270845
0.41360628
0.41408741
0.41420935
0.41426765
0.41430634
0.41434104
0.4143773
0.41441339
0.41443689
0.41445147
0.41446352
0.41447124
0.41447706
0.41448039
0.41448042
0.41447706
0.4144674
0.41445263
0.41443704
0.41442108
0.41440485
0.41439045
0.41437927
0.4143733
0.41437478
0.41438533
0.41440294
0.41441941
0.41443586
0.41445499
0.41447744
0.41450053
0.41452943
0.41455435
0.41459056
0.41461667
0.41468837
0.41471487
0.41465384
0.4146421
0.4145671
0.4145147
0.41443692
0.41437049
0.41429452
0.41422375
0.41414936
0.4140771
0.41400333
0.41393037
0.41385683
0.41378377
0.41371083
0.41363861
0.41356723
0.41349718
0.41342879
0.41336258
0.41329891
0.4132382
0.41318074
0.41312683
0.41307674
0.41303069
0.41298891
0.41295158
0.41291883
0.41289081
0.41286756
0.41284913
0.41283548
0.41282656
0.41282232
0.41282255
0.41282717
0.41283606
0.41284889
0.41286557
0.41288588
0.41290947
0.41293619
0.41296568
0.41299771
0.41303208
0.41306837
0.4131064
0.41314596
0.41318669
0.4132284
0.41327092
0.41331385
0.41335707
0.41340049
0.4134438
0.41348689
0.41352965
0.41357186
0.41361345
0.41365434
0.41369439
0.41373356
0.41377178
0.41380898
0.41384514
0.41388017
0.41391405
0.41394677
0.41397828
0.41400859
0.41403769
0.41406559
0.4140923
0.41411784
0.41414224
0.4141655
0.41418766
0.41420872
0.41422873
0.4142477
0.41426567
0.41428266
0.41429872
0.41431385
0.41432814
0.41434152
0.41435413
0.41436588
0.41437692
0.41438711
0.41439668
0.41440536
0.41441352
0.41442072
0.41442754
0.41443323
0.41443873
0.41444281
0.41444696
0.41444918
0.4144519
0.41445178
0.4144528
0.4144493
0.41444802
0.41443957
0.41443002
0.41442881
0.41442563
0.41442834
0.41443096
0.41443794
0.41444617
0.41445842
0.414473
0.41449114
0.41451159
0.41453336
0.41455184
0.41456134
0.41455449
0.41452374
0.41445868
0.41435384
0.41419841
0.41400399
0.41378461
0.41355696
0.41327719
0.41290704
0.41246839
0.41188212
0.41112616
0.4100558
0.40859348
0.4061373
0.40212604
0.39664636
0.38892856
0.37833501
0.36273202
0.3415595
0.30954176
0.27417037
0.23276369
0.24447273
0.31308022
0.39675374
0.42550363
0.44868028
0.43153228
0.43949144
0.53820679
0.43756536
0.40161877
0.42672357
0.42332979
0.42151375
0.41083767
0.40933508
0.41229364
0.41339369
0.41398971
0.41414282
0.41421575
0.41426402
0.4143072
0.41435231
0.41439737
0.41442688
0.41444521
0.41446038
0.41447013
0.4144775
0.41448174
0.41448182
0.41447766
0.4144656
0.4144471
0.41442756
0.41440757
0.41438726
0.41436922
0.41435521
0.41434766
0.41434939
0.41436243
0.41438437
0.41440498
0.41442559
0.41444959
0.41447788
0.41450712
0.414544
0.41457616
0.41462356
0.4146582
0.41475407
0.41478491
0.41470284
0.41468713
0.41459138
0.41452505
0.41442709
0.41434374
0.41424865
0.41416025
0.41406747
0.41397746
0.4138857
0.41379503
0.41370375
0.41361314
0.41352276
0.41343337
0.41334508
0.41325853
0.41317411
0.41309244
0.41301401
0.41293928
0.41286864
0.41280244
0.412741
0.41268461
0.41263352
0.41258797
0.41254811
0.41251411
0.41248603
0.41246391
0.4124477
0.41243732
0.41243272
0.41243364
0.41243995
0.41245153
0.41246795
0.4124891
0.41251472
0.41254436
0.41257783
0.4126147
0.41265467
0.41269749
0.41274267
0.41278996
0.41283912
0.41288968
0.41294144
0.41299417
0.41304739
0.41310094
0.41315471
0.41320833
0.41326166
0.41331455
0.41336676
0.41341819
0.41346875
0.41351824
0.41356664
0.41361386
0.4136598
0.41370444
0.41374769
0.41378951
0.41382989
0.41386877
0.41390615
0.41394206
0.41397646
0.41400939
0.41404088
0.41407094
0.41409961
0.41412691
0.41415285
0.41417749
0.41420084
0.41422296
0.41424386
0.41426362
0.41428223
0.41429978
0.41431622
0.41433171
0.41434613
0.41435968
0.41437217
0.41438389
0.41439452
0.4144045
0.4144133
0.41442161
0.41442856
0.41443522
0.41444019
0.41444519
0.41444789
0.4144511
0.41445096
0.41445204
0.41444781
0.414446
0.41443569
0.41442428
0.41442285
0.41441934
0.41442289
0.4144265
0.41443537
0.41444589
0.41446125
0.41447952
0.414502
0.41452725
0.41455372
0.4145757
0.41458618
0.41457604
0.41453599
0.41445321
0.41432112
0.41412648
0.41388399
0.41361092
0.41332732
0.41297852
0.41251771
0.41197158
0.41124212
0.41030172
0.40897165
0.40715393
0.40410761
0.39915464
0.39240584
0.38292351
0.36993632
0.35087879
0.32510804
0.28639144
0.2438701
0.19455419
0.2086758
0.29090982
0.39262749
0.4283427
0.45869807
0.43642133
0.4487912
0.56569483
0.4435943
0.39896532
0.42964018
0.42549817
0.42436667
0.41105683
0.40852573
0.41187471
0.41317459
0.41388765
0.41407347
0.41416163
0.41421983
0.41427177
0.41432601
0.4143804
0.41441622
0.41443851
0.41445698
0.4144689
0.41447792
0.41448315
0.41448331
0.41447833
0.41446377
0.41444137
0.41441769
0.41439348
0.4143689
0.41434706
0.41433007
0.41432086
0.41432278
0.41433835
0.41436477
0.4143897
0.41441466
0.41444379
0.41447826
0.41451408
0.41455963
0.41459981
0.41465984
0.41470432
0.41482801
0.41486218
0.4147557
0.41473539
0.41461718
0.414536
0.41441673
0.41431564
0.41420062
0.41409391
0.41398211
0.41387381
0.41376354
0.41365472
0.41354529
0.41343678
0.41332866
0.41322183
0.41311643
0.4130132
0.41291263
0.41281543
0.41272218
0.41263345
0.41254967
0.41247126
0.41239859
0.412332
0.41227179
0.41221822
0.41217149
0.41213178
0.41209914
0.41207363
0.41205516
0.41204365
0.41203901
0.41204093
0.41204927
0.41206386
0.4120842
0.41211014
0.41214137
0.41217736
0.41221787
0.4122624
0.41231059
0.41236214
0.41241646
0.41247325
0.41253223
0.41259286
0.41265487
0.41271799
0.41278168
0.41284574
0.41291002
0.4129741
0.41303781
0.41310098
0.41316331
0.41322469
0.41328501
0.41334406
0.41340177
0.41345807
0.41351284
0.41356604
0.41361757
0.41366739
0.41371548
0.41376177
0.41380628
0.41384901
0.41388995
0.41392914
0.4139666
0.41400236
0.41403644
0.41406889
0.41409972
0.414129
0.41415674
0.41418301
0.41420783
0.41423127
0.41425335
0.41427416
0.41429366
0.414312
0.41432908
0.41434511
0.41435988
0.41437373
0.41438628
0.41439805
0.41440843
0.41441819
0.41442636
0.41443415
0.41443999
0.41444577
0.41444895
0.41445256
0.41445241
0.41445347
0.41444856
0.4144461
0.41443398
0.41442088
0.41441928
0.41441564
0.41442013
0.41442494
0.41443583
0.41444884
0.41446746
0.41448957
0.41451648
0.41454655
0.41457757
0.41460266
0.41461352
0.41459921
0.41454876
0.41444687
0.41428594
0.41405034
0.41375806
0.41342958
0.41308818
0.41266792
0.41211354
0.41145652
0.41057949
0.40944917
0.40785228
0.40566946
0.40202031
0.39611539
0.38809237
0.37685
0.36149122
0.33904657
0.30882002
0.2637325
0.21455692
0.15805239
0.17447436
0.26937908
0.38849683
0.43125757
0.46955008
0.44174494
0.45964292
0.59503811
0.45020096
0.39621265
0.43278183
0.42786782
0.42781295
0.41168972
0.40779194
0.41145447
0.41294959
0.41378126
0.41400129
0.4141053
0.41417377
0.41423472
0.41429834
0.41436242
0.41440487
0.41443135
0.41445331
0.41446754
0.41447832
0.41448463
0.4144849
0.41447908
0.41446193
0.41443545
0.41440744
0.41437882
0.41434978
0.41432397
0.41430385
0.41429286
0.41429494
0.41431306
0.4143441
0.41437353
0.41440305
0.41443756
0.41447857
0.41452143
0.41457639
0.41462546
0.41469971
0.4147555
0.41491089
0.41494712
0.41481258
0.41478698
0.41464452
0.41454752
0.41440582
0.41428623
0.41415051
0.41402491
0.41389356
0.41376654
0.4136374
0.41351011
0.41338229
0.4132557
0.41312969
0.41300535
0.41288282
0.41276295
0.41264631
0.41253372
0.41242583
0.41232331
0.41222664
0.41213632
0.41205275
0.41197631
0.41190735
0.41184615
0.41179296
0.41174796
0.41171121
0.41168272
0.41166242
0.41165018
0.41164591
0.41164925
0.41165999
0.41167795
0.41170255
0.41173361
0.41177075
0.41181337
0.41186118
0.41191361
0.41197022
0.41203068
0.41209431
0.41216076
0.41222969
0.41230048
0.41237284
0.41244645
0.41252067
0.41259527
0.4126701
0.41274466
0.41281876
0.41289221
0.41296465
0.41303598
0.41310604
0.41317461
0.41324162
0.41330696
0.4133705
0.41343222
0.41349199
0.41354975
0.41360551
0.41365917
0.41371075
0.41376026
0.41380769
0.41385307
0.41389644
0.41393784
0.41397729
0.41401484
0.41405051
0.41408437
0.41411645
0.41414681
0.41417549
0.41420257
0.41422806
0.41425208
0.41427458
0.41429573
0.4143154
0.41433386
0.41435087
0.41436678
0.41438121
0.4143947
0.4144066
0.41441775
0.41442712
0.41443596
0.41444263
0.41444912
0.41445276
0.4144567
0.41445655
0.41445747
0.41445194
0.41444872
0.41443488
0.4144203
0.41441859
0.41441506
0.41442061
0.41442682
0.41443989
0.41445558
0.4144776
0.41450369
0.41453508
0.41456996
0.41460529
0.414633
0.41464352
0.41462408
0.41456202
0.41443959
0.41424826
0.41397003
0.41362641
0.41324105
0.41284018
0.4123463
0.41169581
0.4109249
0.40989652
0.40857159
0.40670201
0.40414627
0.39988548
0.39302602
0.38373585
0.37075717
0.35307942
0.32736608
0.29290826
0.24191087
0.18675037
0.12395697
0.14255708
0.2489104
0.38442257
0.43417319
0.48107765
0.44746807
0.47200536
0.6260632
0.45729006
0.39339272
0.4361275
0.43043737
0.43187678
0.41280566
0.4071554
0.41103618
0.41271945
0.41367062
0.41392632
0.41404677
0.41412583
0.41419602
0.41426928
0.41434339
0.41439279
0.41442368
0.41444935
0.41446603
0.4144787
0.41448617
0.41448659
0.41447993
0.41446008
0.41442935
0.41439681
0.41436359
0.4143299
0.41429995
0.41427656
0.41426368
0.41426584
0.41428654
0.41432233
0.41435644
0.41439071
0.41443085
0.41447879
0.41452918
0.41459435
0.41465325
0.41474346
0.4148122
0.41500326
0.41503998
0.41487351
0.41484183
0.41467333
0.41455957
0.41439442
0.41425564
0.41409863
0.41395371
0.41380248
0.4136565
0.41350834
0.41336255
0.41321635
0.41307178
0.41292807
0.41278646
0.41264711
0.41251098
0.41237868
0.41225118
0.41212918
0.41201344
0.41190449
0.41180287
0.41170904
0.41162342
0.41154638
0.41147822
0.41141926
0.41136964
0.4113294
0.41129858
0.41127703
0.41126463
0.41126126
0.41126648
0.41128008
0.41130181
0.41133101
0.41136749
0.41141082
0.41146028
0.41151557
0.41157602
0.41164116
0.41171058
0.41178352
0.41185961
0.41193844
0.41201931
0.41210191
0.41218586
0.41227046
0.41235544
0.41244063
0.41252549
0.41260976
0.41269326
0.4127756
0.41285663
0.41293621
0.41301406
0.41309012
0.41316427
0.41323636
0.41330636
0.41337413
0.41343962
0.41350281
0.41356362
0.41362207
0.41367815
0.41373187
0.41378325
0.41383237
0.41387922
0.41392386
0.41396636
0.4140067
0.41404499
0.41408126
0.41411557
0.41414797
0.41417857
0.41420735
0.41423446
0.41425983
0.41428368
0.41430585
0.41432663
0.41434577
0.41436365
0.41437987
0.41439498
0.41440834
0.41442079
0.41443127
0.41444108
0.41444854
0.41445564
0.4144597
0.41446387
0.41446374
0.41446443
0.41445836
0.41445426
0.41443883
0.41442307
0.4144213
0.41441815
0.41442488
0.41443274
0.41444812
0.4144667
0.41449222
0.4145224
0.41455827
0.41459788
0.41463717
0.4146669
0.41467625
0.41465061
0.4145757
0.41443134
0.41420818
0.41388596
0.41348985
0.41304657
0.41258501
0.41201586
0.41126745
0.41038051
0.40919814
0.40767541
0.4055295
0.40259627
0.39772131
0.38991643
0.37938419
0.36472054
0.34481911
0.31602452
0.27766656
0.22138385
0.16110613
0.093120759
0.11376614
0.23003438
0.38048612
0.43698264
0.49300344
0.45349726
0.48568582
0.65827702
0.46468774
0.39056674
0.43963079
0.4331882
0.43655752
0.41447362
0.40664277
0.41062362
0.41248513
0.41355589
0.41384864
0.41398605
0.41407601
0.41415564
0.41423876
0.41432324
0.41437994
0.41441548
0.41444505
0.41446436
0.41447905
0.41448777
0.41448838
0.41448088
0.41445825
0.41442308
0.41438582
0.41434781
0.41430928
0.41427502
0.41424822
0.41423333
0.4142355
0.41425878
0.41429945
0.4143384
0.41437762
0.41442366
0.41447891
0.41453733
0.41461354
0.41468329
0.41479131
0.41487475
0.41510543
0.4151407
0.41493831
0.41489967
0.41470342
0.41457206
0.41438261
0.41422418
0.41404554
0.41388118
0.41371005
0.41354526
0.41337833
0.41321438
0.41305026
0.41288825
0.41272749
0.41256934
0.41241396
0.41226244
0.41211543
0.411974
0.41183894
0.41171104
0.41159088
0.41147907
0.41137608
0.41128237
0.41119831
0.41112427
0.41106056
0.41100728
0.41096449
0.41093218
0.41091018
0.41089835
0.41089653
0.41090419
0.41092113
0.41094705
0.4109812
0.41102335
0.41107302
0.41112942
0.41119221
0.41126064
0.41133419
0.41141239
0.41149442
0.41157986
0.41166825
0.41175884
0.41185125
0.4119451
0.41203961
0.41213448
0.41222951
0.41232411
0.41241804
0.41251105
0.41260273
0.4126929
0.41278144
0.41286803
0.4129526
0.41303502
0.41311514
0.41319292
0.41326819
0.41334092
0.41341108
0.41347859
0.41354345
0.41360569
0.41366529
0.4137223
0.41377677
0.41382873
0.41387823
0.41392533
0.41397004
0.41401247
0.41405264
0.41409065
0.41412653
0.41416039
0.41419224
0.41422222
0.41425028
0.41427663
0.41430113
0.41432406
0.41434517
0.41436486
0.41438272
0.41439933
0.41441402
0.41442764
0.41443914
0.4144498
0.41445798
0.4144656
0.41447005
0.41447435
0.41447426
0.41447462
0.41446813
0.41446304
0.41444625
0.41442966
0.41442792
0.41442543
0.41443346
0.4144432
0.414461
0.41448265
0.41451171
0.41454605
0.41458631
0.41463047
0.41467326
0.41470428
0.41471154
0.41467862
0.41458967
0.4144222
0.41416619
0.4137992
0.41335021
0.4128488
0.41232611
0.41168104
0.41083418
0.40983056
0.40849356
0.40677239
0.40435018
0.40104015
0.39555835
0.38683434
0.37511042
0.35885024
0.33687551
0.3052715
0.26346509
0.20269025
0.13834075
0.06642224
0.088965984
0.21331832
0.37677967
0.43955382
0.50493655
0.45966996
0.5003123
0.6909204
0.47217005
0.38781734
0.44322185
0.4360794
0.44181708
0.41675384
0.4062873
0.41022103
0.41224779
0.41343728
0.41376834
0.41392321
0.41402433
0.41411359
0.41420675
0.41430193
0.41436627
0.4144067
0.4144404
0.4144625
0.41447936
0.41448945
0.41449029
0.41448194
0.41445644
0.41441668
0.41437449
0.41433152
0.41428798
0.41424924
0.41421889
0.41420188
0.41420399
0.41422983
0.41427548
0.41431944
0.41436379
0.41441599
0.41447892
0.41454587
0.41463397
0.41471561
0.4148433
0.41494322
0.41521715
0.41524873
0.41500647
0.41495994
0.41473445
0.41458479
0.41437058
0.41419239
0.41399223
0.41380873
0.4136182
0.41343523
0.41325031
0.41306913
0.41288814
0.41270984
0.41253328
0.41235995
0.41218999
0.41202457
0.4118644
0.41171066
0.41156414
0.41142572
0.41129601
0.41117563
0.41106507
0.4109648
0.41087524
0.41079676
0.41072965
0.41067398
0.41062979
0.41059705
0.41057555
0.41056511
0.41056553
0.41057625
0.41059699
0.41062743
0.41066676
0.41071469
0.4107707
0.41083394
0.41090401
0.41098012
0.41106166
0.41114817
0.41123873
0.41133289
0.41143016
0.41152972
0.41163116
0.41173408
0.41183762
0.4119415
0.41204548
0.41214892
0.41225154
0.41235314
0.41245322
0.41255163
0.41264821
0.41274263
0.41283482
0.41292464
0.41301193
0.41309664
0.41317861
0.4132578
0.41333417
0.41340764
0.41347822
0.41354594
0.41361078
0.41367278
0.41373203
0.41378853
0.41384234
0.41389354
0.41394214
0.41398825
0.41403191
0.4140732
0.41411217
0.41414893
0.41418351
0.41421605
0.41424649
0.41427506
0.41430161
0.41432645
0.41434931
0.4143706
0.41438992
0.41440783
0.41442369
0.41443833
0.41445073
0.41446211
0.41447092
0.41447894
0.41448378
0.4144881
0.41448812
0.41448806
0.41448134
0.41447522
0.41445738
0.41444038
0.41443874
0.41443723
0.41444664
0.41445845
0.41447873
0.41450355
0.41453613
0.41457457
0.41461904
0.41466743
0.41471312
0.41474462
0.41474885
0.41470763
0.41460372
0.41441242
0.41412323
0.41371176
0.41321075
0.41265228
0.4120693
0.41134922
0.41040541
0.40928681
0.40779757
0.40588127
0.40318828
0.39950976
0.39344223
0.3838478
0.37101399
0.35328946
0.32945223
0.29539536
0.25069749
0.18634581
0.11906061
0.044529341
0.068816217
0.19923913
0.37338829
0.44174925
0.51642524
0.46576812
0.51537456
0.72316598
0.47952402
0.38522691
0.44682256
0.4390507
0.44757081
0.41968401
0.40613082
0.40983312
0.41200889
0.41331514
0.41368561
0.41385835
0.41397084
0.41406987
0.41417321
0.41427941
0.41435172
0.4143973
0.41443537
0.41446045
0.41447961
0.41449118
0.41449232
0.41448312
0.41445468
0.41441017
0.41436288
0.41431478
0.41426606
0.4142227
0.41418867
0.41416944
0.41417142
0.4141998
0.4142505
0.41429962
0.41434928
0.41440785
0.4144788
0.41455476
0.41465551
0.41475003
0.41489919
0.41501726
0.41533741
0.41536277
0.41507698
0.4150216
0.41476582
0.4145975
0.41435859
0.41416103
0.41394004
0.41373832
0.4135295
0.41332962
0.41312815
0.41293128
0.41273509
0.41254232
0.41235186
0.4121653
0.4119828
0.41180558
0.4116344
0.41147047
0.41131463
0.41116779
0.41103057
0.41090362
0.41078742
0.41068244
0.41058909
0.41050782
0.4104388
0.41038211
0.41033773
0.41030561
0.41028554
0.41027725
0.41028051
0.41029474
0.41031959
0.4103547
0.4103992
0.41045279
0.41051488
0.41058455
0.41066141
0.41074456
0.41083338
0.41092739
0.4110256
0.41112751
0.41123264
0.41134007
0.41144942
0.41156024
0.41167163
0.41178329
0.41189497
0.412006
0.4121161
0.41222502
0.41233227
0.41243768
0.41254109
0.41264216
0.4127408
0.41283688
0.41293022
0.41302079
0.4131084
0.41319302
0.41327462
0.41335311
0.4134285
0.41350082
0.41357006
0.41363627
0.41369951
0.41375983
0.41381727
0.41387192
0.41392379
0.41397298
0.41401956
0.41406361
0.41410518
0.41414438
0.41418125
0.41421594
0.41424838
0.41427882
0.4143071
0.41433353
0.41435787
0.4143805
0.41440104
0.41442004
0.41443688
0.41445235
0.41446552
0.41447748
0.41448685
0.41449516
0.41450037
0.41450466
0.41450486
0.41450437
0.41449764
0.41449053
0.41447212
0.41445519
0.41445371
0.41445343
0.41446423
0.41447826
0.41450097
0.41452895
0.4145649
0.41460727
0.41465561
0.41470779
0.41475569
0.41478681
0.41478714
0.41473686
0.41461753
0.41440245
0.41408083
0.41362659
0.41307607
0.41246339
0.4118226
0.41103048
0.40999391
0.4087651
0.40713003
0.40502694
0.40207564
0.3980463
0.39143033
0.38103865
0.36720854
0.3481926
0.3227536
0.28665916
0.23967866
0.17269057
0.1035654
0.027669721
0.053555607
0.18805752
0.3703738
0.44345225
0.52703879
0.47155555
0.53032765
0.75431385
0.48659713
0.38285715
0.45036638
0.44203438
0.45369029
0.42325897
0.40622799
0.40946515
0.41177014
0.41318988
0.41360067
0.41379161
0.41391562
0.4140245
0.41413813
0.41425562
0.41433626
0.41438725
0.41442992
0.41445817
0.4144798
0.41449298
0.41449446
0.41448444
0.41445301
0.4144036
0.41435106
0.41429767
0.41424365
0.41419555
0.41415776
0.41413624
0.414138
0.41416889
0.41422469
0.41427908
0.41433419
0.41439932
0.41447856
0.41456389
0.41467793
0.41478617
0.41495829
0.41509588
0.4154641
0.41548059
0.4151483
0.41508316
0.41479673
0.41460986
0.41434701
0.41413106
0.41389062
0.41367215
0.4134468
0.41323186
0.41301585
0.4128054
0.41259622
0.41239123
0.41218921
0.41199183
0.41179919
0.41161259
0.41143278
0.41126101
0.41109817
0.41094514
0.41080257
0.41067107
0.41055113
0.41044324
0.41034781
0.41026521
0.4101956
0.41013904
0.41009547
0.41006482
0.4100468
0.41004113
0.41004758
0.41006546
0.41009441
0.41013405
0.41018344
0.41024225
0.41030986
0.4103853
0.41046815
0.41055748
0.41065264
0.41075308
0.4108578
0.4109663
0.41107803
0.41119208
0.41130802
0.41142539
0.41154328
0.41166134
0.41177935
0.41189659
0.41201277
0.41212765
0.41224072
0.4123518
0.41246073
0.41256716
0.412671
0.41277211
0.41287031
0.41296557
0.4130577
0.41314667
0.41323244
0.41331494
0.41339417
0.41347016
0.4135429
0.41361246
0.41367889
0.41374225
0.41380258
0.41385997
0.41391443
0.41396608
0.41401499
0.41406123
0.41410486
0.41414601
0.4141847
0.4142211
0.41425514
0.41428705
0.41431672
0.41434441
0.41436992
0.41439361
0.41441513
0.41443498
0.41445262
0.41446875
0.41448254
0.41449494
0.41450479
0.41451331
0.41451888
0.41452311
0.41452361
0.41452272
0.41451625
0.41450828
0.41448985
0.41447346
0.41447217
0.41447333
0.41448546
0.41450171
0.41452671
0.41455772
0.41459677
0.41464276
0.41469451
0.41474991
0.41479927
0.41482925
0.41482502
0.41476533
0.41463073
0.41439283
0.41404072
0.41354698
0.41295118
0.41228885
0.41159453
0.4107355
0.40961312
0.4082821
0.40651173
0.40423534
0.40104516
0.39669183
0.38957942
0.37848375
0.36379344
0.34368422
0.31692689
0.27922079
0.23054404
0.16177666
0.091751062
0.015556854
0.042928439
0.17975568
0.36776606
0.44458798
0.53643609
0.47681949
0.54469179
0.78386294
0.49330666
0.38074293
0.45380979
0.44496962
0.46002085
0.4274034
0.40665937
0.4091239
0.41153361
0.41306212
0.41351383
0.41372317
0.41385879
0.41397753
0.41410151
0.41423053
0.41431984
0.41437649
0.41442402
0.41445565
0.41447992
0.41449483
0.41449673
0.41448592
0.41445144
0.41439704
0.41433912
0.41428034
0.41422094
0.41416804
0.41412643
0.41410258
0.41410411
0.41413745
0.41419835
0.41425808
0.41431873
0.41439052
0.41447821
0.41457309
0.41470078
0.4148233
0.41501936
0.41517734
0.41559394
0.41559902
0.41521839
0.4151428
0.41482625
0.41462147
0.4143362
0.41410339
0.41384549
0.41361228
0.41337258
0.41314481
0.41291658
0.41269493
0.4124752
0.41226043
0.4120493
0.41184351
0.41164314
0.4114495
0.41126336
0.41108598
0.41091823
0.410761
0.41061491
0.4104806
0.41035853
0.41024916
0.41015291
0.41007008
0.41000081
0.40994514
0.40990299
0.40987423
0.40985855
0.40985565
0.40986524
0.40988662
0.40991938
0.40996311
0.41001685
0.41008023
0.41015261
0.41023299