/*--------------------------------*- C++ -*----------------------------------*\
  =========                 |
  \\      /  F ield         | OpenFOAM: The Open Source CFD Toolbox
   \\    /   O peration     | Website:  https://openfoam.org
    \\  /    A nd           | Version:  7
     \\/     M anipulation  |
\*---------------------------------------------------------------------------*/
FoamFile
{
    version     2.0;
    format      ascii;
    class       volScalarField;
    location    "20000";
    object      Q9;
}
// * * * * * * * * * * * * * * * * * * * * * * * * * * * * * * * * * * * * * //

dimensions      [0 0 0 0 0 0 0];

internalField   nonuniform List<scalar> 
32000
(
0.58462406
0.58462383
0.58462443
0.58462406
0.58462416
0.58462398
0.58462416
0.58462422
0.58462423
0.58462423
0.58462423
0.58462423
0.58462423
0.58462423
0.58462423
0.58462423
0.58462423
0.58462423
0.58462423
0.58462423
0.58462423
0.58462423
0.58462423
0.58462423
0.58462423
0.58462423
0.58462423
0.58462423
0.58462423
0.58462423
0.58462423
0.58462423
0.58462423
0.58462423
0.58462423
0.58462423
0.58462423
0.58462423
0.58462423
0.58462423
0.58462423
0.58462423
0.58462423
0.58462423
0.58462423
0.58462423
0.58462423
0.58462423
0.58462423
0.58462423
0.58462423
0.58462423
0.58462423
0.58462423
0.58462423
0.58462423
0.58462424
0.58462424
0.58462424
0.58462424
0.58462424
0.58462424
0.58462424
0.58462424
0.58462424
0.58462424
0.58462424
0.58462424
0.58462424
0.58462424
0.58462424
0.58462424
0.58462424
0.58462424
0.58462424
0.58462424
0.58462424
0.58462424
0.58462424
0.58462424
0.58462424
0.58462424
0.58462424
0.58462424
0.58462424
0.58462424
0.58462424
0.58462423
0.58462423
0.58462423
0.58462423
0.58462423
0.58462423
0.58462423
0.58462423
0.58462423
0.58462423
0.58462423
0.58462423
0.58462423
0.58462423
0.58462423
0.58462423
0.58462423
0.58462422
0.58462422
0.58462422
0.58462422
0.58462422
0.58462422
0.58462422
0.58462422
0.58462422
0.58462422
0.58462422
0.58462422
0.58462422
0.58462422
0.58462422
0.58462422
0.58462422
0.58462422
0.58462422
0.58462422
0.58462422
0.58462422
0.58462422
0.58462422
0.58462422
0.58462422
0.58462422
0.58462422
0.58462422
0.58462422
0.58462422
0.58462422
0.58462422
0.58462422
0.58462422
0.58462422
0.58462422
0.58462423
0.58462423
0.58462423
0.58462423
0.58462423
0.58462423
0.58462423
0.58462423
0.58462423
0.58462423
0.58462423
0.58462423
0.58462423
0.58462423
0.58462424
0.58462424
0.58462424
0.58462425
0.58462425
0.58462426
0.58462427
0.58462427
0.58462428
0.58462428
0.58462428
0.58462428
0.58462427
0.58462426
0.58462424
0.58462422
0.58462419
0.58462415
0.58462411
0.58462407
0.58462404
0.584624
0.58462395
0.5846239
0.58462383
0.58462374
0.58462361
0.58462344
0.58462314
0.58462266
0.58462201
0.58462114
0.58461993
0.58461811
0.58461559
0.5846119
0.58460839
0.58460618
0.58461132
0.5846193
0.58462436
0.58462482
0.584625
0.58462427
0.5846244
0.58461575
0.58460943
0.58461887
0.58463197
0.584634
0.58463087
0.58462608
0.58462455
0.58462422
0.58462421
0.58462422
0.58462423
0.58462423
0.58462423
0.58462423
0.58462423
0.58462423
0.58462423
0.58462423
0.58462423
0.58462423
0.58462423
0.58462423
0.58462423
0.58462423
0.58462423
0.58462423
0.58462423
0.58462423
0.58462423
0.58462423
0.58462423
0.58462423
0.58462423
0.58462422
0.58462422
0.58462422
0.58462422
0.58462421
0.58462421
0.5846242
0.5846242
0.5846242
0.5846242
0.58462422
0.58462427
0.58462437
0.58462436
0.58462435
0.58462434
0.58462433
0.58462432
0.58462431
0.5846243
0.58462429
0.58462429
0.58462428
0.58462427
0.58462426
0.58462425
0.58462425
0.58462424
0.58462423
0.58462422
0.58462421
0.5846242
0.58462419
0.58462417
0.58462416
0.58462415
0.58462413
0.58462412
0.5846241
0.58462409
0.58462408
0.58462406
0.58462404
0.58462403
0.58462401
0.584624
0.58462398
0.58462397
0.58462396
0.58462394
0.58462393
0.58462392
0.58462391
0.58462389
0.58462388
0.58462387
0.58462387
0.58462386
0.58462385
0.58462385
0.58462384
0.58462384
0.58462383
0.58462383
0.58462383
0.58462383
0.58462383
0.58462383
0.58462383
0.58462383
0.58462384
0.58462384
0.58462384
0.58462385
0.58462385
0.58462386
0.58462386
0.58462387
0.58462387
0.58462388
0.58462389
0.5846239
0.5846239
0.58462391
0.58462392
0.58462393
0.58462393
0.58462394
0.58462395
0.58462396
0.58462397
0.58462398
0.58462399
0.58462399
0.584624
0.58462401
0.58462402
0.58462403
0.58462404
0.58462405
0.58462406
0.58462406
0.58462407
0.58462408
0.58462409
0.5846241
0.58462411
0.58462412
0.58462413
0.58462415
0.58462416
0.58462417
0.58462418
0.5846242
0.58462422
0.58462424
0.58462426
0.58462429
0.5846243
0.58462434
0.58462427
0.58462424
0.5846242
0.58462418
0.58462415
0.58462413
0.5846241
0.58462407
0.58462403
0.58462398
0.58462393
0.58462385
0.58462377
0.58462369
0.5846236
0.58462351
0.58462341
0.58462333
0.58462325
0.58462322
0.58462323
0.58462328
0.58462325
0.5846232
0.58462314
0.58462304
0.5846229
0.58462265
0.58462232
0.58462156
0.58462045
0.58461895
0.58461705
0.58461443
0.58461022
0.58460327
0.584592
0.58457765
0.58457285
0.58461088
0.58465274
0.58467087
0.58466192
0.5846555
0.58463986
0.58463036
0.58455129
0.58449326
0.58453426
0.58469794
0.58471549
0.5846972
0.58464686
0.58462847
0.58462421
0.58462406
0.58462415
0.5846242
0.58462421
0.58462422
0.58462422
0.58462422
0.58462422
0.58462422
0.58462422
0.58462423
0.58462423
0.58462423
0.58462424
0.58462424
0.58462424
0.58462425
0.58462424
0.58462424
0.58462423
0.58462422
0.58462422
0.5846242
0.58462417
0.58462414
0.5846241
0.58462408
0.58462405
0.58462401
0.58462396
0.58462391
0.58462386
0.58462383
0.58462383
0.58462393
0.58462409
0.58462474
0.58462562
0.58462542
0.58462529
0.58462519
0.58462506
0.58462493
0.5846248
0.58462468
0.58462456
0.58462446
0.58462435
0.58462425
0.58462414
0.58462404
0.58462393
0.58462382
0.58462371
0.58462359
0.58462346
0.58462333
0.5846232
0.58462306
0.58462291
0.58462277
0.58462262
0.58462247
0.58462231
0.58462216
0.58462201
0.58462186
0.5846217
0.58462155
0.5846214
0.58462125
0.5846211
0.58462096
0.58462083
0.5846207
0.58462058
0.58462047
0.58462036
0.58462026
0.58462017
0.58462009
0.58462002
0.58461995
0.5846199
0.58461985
0.58461981
0.58461979
0.58461977
0.58461976
0.58461976
0.58461975
0.58461976
0.58461978
0.58461981
0.58461984
0.58461988
0.58461992
0.58461997
0.58462002
0.58462008
0.58462014
0.58462021
0.58462028
0.58462035
0.58462043
0.58462051
0.5846206
0.58462068
0.58462077
0.58462085
0.58462094
0.58462103
0.58462112
0.58462122
0.58462131
0.5846214
0.5846215
0.58462159
0.58462169
0.58462178
0.58462187
0.58462197
0.58462206
0.58462216
0.58462225
0.58462235
0.58462245
0.58462254
0.58462265
0.58462275
0.58462285
0.58462296
0.58462308
0.5846232
0.58462332
0.58462346
0.5846236
0.58462376
0.58462394
0.58462412
0.58462435
0.58462457
0.58462488
0.58462512
0.58462548
0.5846247
0.58462425
0.58462385
0.58462351
0.58462316
0.58462283
0.58462245
0.58462205
0.58462159
0.58462105
0.58462036
0.58461948
0.58461861
0.58461775
0.58461687
0.584616
0.58461515
0.58461443
0.5846138
0.5846137
0.58461402
0.58461469
0.58461466
0.58461457
0.58461433
0.58461381
0.58461305
0.58461142
0.58460946
0.58460475
0.5845974
0.58458703
0.5845753
0.58456007
0.58453556
0.58448892
0.58441088
0.58428782
0.58425345
0.58456555
0.58492871
0.58506618
0.58500624
0.5849336
0.58481259
0.58468565
0.58431823
0.58403665
0.58408701
0.58494636
0.5850364
0.5849844
0.58474357
0.58464784
0.58462431
0.58462334
0.58462382
0.58462408
0.58462413
0.58462414
0.58462414
0.58462415
0.58462416
0.58462418
0.58462419
0.5846242
0.58462421
0.58462422
0.58462424
0.58462426
0.58462427
0.58462427
0.58462425
0.58462421
0.58462416
0.58462412
0.58462408
0.58462399
0.58462384
0.58462364
0.58462345
0.58462331
0.58462319
0.58462298
0.58462273
0.58462249
0.58462224
0.58462215
0.58462216
0.58462275
0.58462361
0.58462702
0.58463093
0.58462972
0.58462898
0.58462844
0.58462767
0.58462697
0.58462623
0.5846256
0.58462493
0.58462436
0.58462375
0.5846232
0.58462261
0.58462205
0.58462146
0.58462086
0.58462025
0.58461961
0.58461895
0.58461826
0.58461755
0.58461682
0.58461608
0.58461532
0.58461456
0.5846138
0.58461303
0.58461227
0.58461151
0.58461075
0.58460998
0.58460922
0.58460847
0.58460774
0.58460704
0.58460636
0.58460572
0.5846051
0.58460452
0.58460398
0.58460347
0.584603
0.58460258
0.58460219
0.58460186
0.58460156
0.58460131
0.5846011
0.58460094
0.58460084
0.58460077
0.58460076
0.58460076
0.58460074
0.5846008
0.58460095
0.58460111
0.58460128
0.58460149
0.58460173
0.58460198
0.58460227
0.58460258
0.58460291
0.58460326
0.58460363
0.58460402
0.58460442
0.58460484
0.58460527
0.58460572
0.58460617
0.58460662
0.58460709
0.58460755
0.58460802
0.5846085
0.58460898
0.58460947
0.58460995
0.58461044
0.58461093
0.58461142
0.58461191
0.58461239
0.58461288
0.58461338
0.58461387
0.58461437
0.58461488
0.58461539
0.58461592
0.58461645
0.584617
0.58461757
0.58461816
0.58461879
0.58461944
0.58462015
0.5846209
0.58462174
0.58462264
0.58462364
0.58462477
0.58462601
0.58462754
0.58462895
0.58463067
0.58462669
0.58462428
0.58462227
0.58462044
0.58461869
0.58461695
0.58461503
0.58461294
0.58461057
0.5846078
0.58460422
0.58459966
0.58459515
0.58459066
0.58458606
0.58458143
0.58457691
0.58457299
0.58456947
0.5845684
0.58456962
0.58457266
0.58457248
0.58457169
0.58457024
0.58456733
0.58456317
0.58455452
0.58454478
0.58452233
0.58448483
0.58443106
0.58437231
0.58429875
0.58418312
0.5839579
0.58358256
0.58295501
0.58275802
0.58416283
0.58594037
0.58663067
0.58647344
0.58612705
0.58563781
0.58495257
0.58378
0.58279962
0.5826389
0.58555156
0.58589792
0.58581726
0.58504101
0.58471046
0.58462509
0.58462119
0.5846228
0.58462369
0.58462387
0.58462391
0.58462392
0.58462394
0.58462399
0.58462404
0.58462407
0.5846241
0.58462414
0.58462418
0.58462424
0.58462428
0.58462432
0.58462432
0.58462422
0.58462404
0.58462384
0.5846237
0.58462354
0.5846232
0.58462264
0.58462194
0.58462125
0.58462079
0.58462036
0.58461961
0.58461874
0.58461796
0.58461717
0.58461695
0.58461712
0.58461938
0.58462257
0.58463445
0.58464626
0.58464154
0.58463887
0.58463686
0.58463407
0.58463155
0.58462886
0.58462661
0.58462417
0.58462211
0.58461989
0.58461788
0.58461575
0.58461371
0.58461158
0.58460943
0.58460721
0.58460493
0.58460258
0.58460015
0.58459765
0.5845951
0.5845925
0.58458988
0.58458725
0.58458462
0.584582
0.5845794
0.58457682
0.58457422
0.58457161
0.58456903
0.58456651
0.58456407
0.58456171
0.58455945
0.5845573
0.58455526
0.58455334
0.58455155
0.58454987
0.58454835
0.58454697
0.58454573
0.58454465
0.5845437
0.58454291
0.58454224
0.58454177
0.58454149
0.58454131
0.58454133
0.58454141
0.58454138
0.58454161
0.5845422
0.58454278
0.58454341
0.58454417
0.58454502
0.58454594
0.58454696
0.58454805
0.58454921
0.58455045
0.58455175
0.58455312
0.58455455
0.58455603
0.58455754
0.58455909
0.58456067
0.58456227
0.58456389
0.58456551
0.58456716
0.58456883
0.58457051
0.58457221
0.58457391
0.58457561
0.58457732
0.58457903
0.58458074
0.58458245
0.58458417
0.5845859
0.58458764
0.58458939
0.58459116
0.58459297
0.5845948
0.58459669
0.58459861
0.58460063
0.58460269
0.58460491
0.58460718
0.58460971
0.58461231
0.58461529
0.58461838
0.584622
0.58462587
0.58463037
0.58463554
0.58464075
0.58464656
0.58463295
0.58462434
0.58461743
0.58461094
0.58460491
0.58459881
0.58459216
0.58458485
0.58457664
0.58456697
0.58455451
0.58453866
0.58452294
0.5845072
0.58449108
0.58447475
0.58445878
0.58444476
0.58443201
0.58442719
0.58443042
0.58444027
0.58443978
0.58443655
0.58443126
0.58442092
0.58440639
0.5843763
0.58434411
0.58427136
0.58414395
0.58395833
0.58376067
0.58352092
0.58314916
0.58241528
0.58119132
0.57907816
0.57834792
0.58263404
0.58841648
0.59077556
0.59063211
0.5895944
0.5882094
0.58587567
0.58290704
0.58012906
0.57908553
0.58664398
0.58772889
0.58772905
0.58576196
0.58486991
0.58462826
0.58461606
0.58462032
0.58462275
0.58462323
0.58462334
0.58462336
0.58462342
0.58462355
0.5846237
0.58462379
0.58462386
0.58462396
0.58462407
0.5846242
0.58462431
0.58462439
0.58462434
0.58462403
0.58462351
0.5846229
0.58462246
0.584622
0.58462101
0.58461944
0.58461749
0.5846156
0.58461431
0.5846131
0.58461106
0.58460872
0.58460667
0.58460465
0.5846043
0.58460514
0.58461179
0.58462113
0.58465358
0.58468148
0.58466737
0.58466015
0.58465421
0.58464634
0.58463921
0.58463164
0.58462533
0.58461844
0.58461261
0.58460633
0.58460062
0.58459459
0.5845888
0.58458277
0.58457672
0.58457048
0.58456411
0.58455754
0.5845508
0.58454389
0.58453686
0.58452975
0.58452259
0.58451542
0.58450828
0.58450119
0.58449418
0.58448724
0.58448025
0.58447324
0.58446635
0.58445964
0.58445316
0.5844469
0.58444093
0.58443525
0.58442987
0.58442485
0.58442016
0.58441578
0.58441182
0.58440824
0.58440505
0.58440227
0.58439985
0.58439786
0.58439618
0.58439505
0.58439441
0.58439407
0.58439426
0.58439459
0.58439456
0.58439529
0.58439701
0.58439866
0.58440045
0.5844026
0.58440497
0.58440754
0.58441037
0.5844134
0.58441661
0.58442003
0.58442363
0.58442741
0.58443134
0.5844354
0.58443957
0.58444384
0.58444816
0.58445256
0.584457
0.58446148
0.58446601
0.5844706
0.58447523
0.58447989
0.58448457
0.58448925
0.58449397
0.58449867
0.58450338
0.5845081
0.58451283
0.58451761
0.5845224
0.58452724
0.58453213
0.58453712
0.58454219
0.5845474
0.58455271
0.5845583
0.58456398
0.58457014
0.58457639
0.58458342
0.58459055
0.58459887
0.58460731
0.58461745
0.58462794
0.58464059
0.58465456
0.58466937
0.58468509
0.5846485
0.5846245
0.58460565
0.58458758
0.58457112
0.58455417
0.58453595
0.58451575
0.58449322
0.58446662
0.5844325
0.58438914
0.58434603
0.5843028
0.58425851
0.58421357
0.58416962
0.58413087
0.58409531
0.58408031
0.58408731
0.5841132
0.58411274
0.58410377
0.58408961
0.58406209
0.58402367
0.58394324
0.58386181
0.58367725
0.58334362
0.58284812
0.58233278
0.58172995
0.58080422
0.57895527
0.57586556
0.57042209
0.56840672
0.57856554
0.59300041
0.59924411
0.59978991
0.59754383
0.59443772
0.58844207
0.58204048
0.57527167
0.57183869
0.58811429
0.5910162
0.59149543
0.58726079
0.58521925
0.58463781
0.5846055
0.5846151
0.58462073
0.58462187
0.58462211
0.58462216
0.58462231
0.58462263
0.58462297
0.58462316
0.58462333
0.58462356
0.58462379
0.58462408
0.5846243
0.58462444
0.58462425
0.58462346
0.58462212
0.58462059
0.58461949
0.58461836
0.58461598
0.58461221
0.58460761
0.58460317
0.58460013
0.58459724
0.58459247
0.58458709
0.5845825
0.58457816
0.58457788
0.58458071
0.58459726
0.58462064
0.58469597
0.58475112
0.5847156
0.58469955
0.58468433
0.58466563
0.58464849
0.58463046
0.58461537
0.58459888
0.58458492
0.58456986
0.58455615
0.5845417
0.5845278
0.58451339
0.58449893
0.58448409
0.58446898
0.58445346
0.58443761
0.58442142
0.58440503
0.58438849
0.5843719
0.58435533
0.58433888
0.58432262
0.58430658
0.58429073
0.58427476
0.5842588
0.5842432
0.58422803
0.5842134
0.58419931
0.5841859
0.58417318
0.58416114
0.58414995
0.5841395
0.58412979
0.58412103
0.58411313
0.58410612
0.58410004
0.58409479
0.58409049
0.58408689
0.58408451
0.58408331
0.58408278
0.58408343
0.58408437
0.58408444
0.58408625
0.58409038
0.58409432
0.58409855
0.58410362
0.58410918
0.58411521
0.5841218
0.58412887
0.58413635
0.58414432
0.5841527
0.58416149
0.58417065
0.58418007
0.58418978
0.58419969
0.58420976
0.58421998
0.58423032
0.58424073
0.58425129
0.58426198
0.58427276
0.58428363
0.58429454
0.58430547
0.58431648
0.58432747
0.58433847
0.58434951
0.58436056
0.58437176
0.58438297
0.58439432
0.58440579
0.58441751
0.58442938
0.58444165
0.58445408
0.58446725
0.58448057
0.58449507
0.58450973
0.58452631
0.58454298
0.58456265
0.58458234
0.58460636
0.58463074
0.58466078
0.58469315
0.58472857
0.58476543
0.58468168
0.58462507
0.5845811
0.58453845
0.58449996
0.58446001
0.58441736
0.58436992
0.58431726
0.58425496
0.58417541
0.58407446
0.58397392
0.58387293
0.58376949
0.58366444
0.58356175
0.58347103
0.58338705
0.58334862
0.58336125
0.58341963
0.58342072
0.58340018
0.58336849
0.58330689
0.58322128
0.58303931
0.58286583
0.58246451
0.58172971
0.5806111
0.57947072
0.5781943
0.57625101
0.57234644
0.56582504
0.55423861
0.54972854
0.56971922
0.59944762
0.61319444
0.61647144
0.61285966
0.60710868
0.59447345
0.58228877
0.56777078
0.55909892
0.58928246
0.5960852
0.59813708
0.59006149
0.58591125
0.58466217
0.58458595
0.58460517
0.58461682
0.58461921
0.58461972
0.58461983
0.58462018
0.58462085
0.58462155
0.58462196
0.58462229
0.58462276
0.58462321
0.58462377
0.58462418
0.58462438
0.58462385
0.58462207
0.58461908
0.58461563
0.58461319
0.58461075
0.58460566
0.58459765
0.58458796
0.58457867
0.58457227
0.58456613
0.5845562
0.58454518
0.58453604
0.58452783
0.58452839
0.58453621
0.58457278
0.58462486
0.58478024
0.58487449
0.5847952
0.58476421
0.58472915
0.58468976
0.58465299
0.58461486
0.5845828
0.58454785
0.58451819
0.5844862
0.58445707
0.58442642
0.58439697
0.58436651
0.58433606
0.5843049
0.5842733
0.58424099
0.58420815
0.58417477
0.58414108
0.58410723
0.58407341
0.58403975
0.58400646
0.58397366
0.58394145
0.58390962
0.58387756
0.58384569
0.58381468
0.58378458
0.58375565
0.58372784
0.58370144
0.58367645
0.58365287
0.583631
0.58361063
0.58359174
0.58357474
0.58355947
0.58354596
0.58353429
0.58352427
0.58351615
0.58350942
0.58350489
0.58350291
0.58350241
0.58350403
0.58350624
0.58350653
0.58351038
0.58351898
0.58352714
0.58353585
0.58354621
0.58355757
0.58356988
0.5835833
0.58359767
0.5836129
0.58362911
0.58364616
0.58366405
0.58368268
0.58370187
0.58372164
0.58374182
0.58376233
0.58378317
0.58380427
0.58382554
0.58384712
0.58386898
0.58389105
0.58391333
0.58393569
0.58395812
0.58398073
0.58400332
0.58402596
0.58404869
0.58407147
0.58409457
0.58411773
0.5841412
0.58416491
0.58418918
0.58421376
0.58423923
0.58426502
0.58429239
0.58432004
0.58435023
0.58438066
0.58441524
0.58444984
0.58449092
0.58453178
0.58458208
0.58463258
0.58469563
0.58476256
0.58483743
0.58491532
0.58474521
0.58462692
0.58453554
0.58444626
0.58436614
0.58428257
0.58419384
0.58409496
0.58398563
0.58385619
0.58369157
0.58348317
0.58327512
0.58306593
0.58285174
0.5826342
0.58242163
0.58223373
0.58205822
0.58197237
0.58199104
0.58210806
0.58211477
0.58207394
0.5820117
0.58189044
0.58172261
0.5813594
0.58103639
0.58025638
0.57884731
0.57662597
0.57439825
0.5720451
0.56849421
0.56134893
0.54945496
0.528328
0.51974516
0.5533968
0.60560355
0.6314765
0.64193866
0.63802693
0.62936951
0.60668195
0.58581361
0.55819831
0.53968286
0.58852395
0.60261801
0.60880939
0.59488936
0.58718694
0.58471798
0.58455262
0.58458762
0.58460977
0.58461443
0.58461541
0.58461565
0.58461637
0.58461768
0.58461902
0.58461979
0.58462041
0.58462129
0.58462211
0.58462311
0.5846238
0.58462401
0.58462274
0.58461912
0.58461302
0.58460588
0.58460095
0.58459617
0.58458623
0.58457064
0.58455191
0.58453412
0.5845218
0.5845099
0.58449098
0.58447037
0.58445379
0.58443982
0.5844432
0.58446196
0.58453579
0.58464155
0.58493382
0.58507431
0.58491208
0.58485868
0.58478428
0.58470859
0.58463634
0.58456289
0.58450081
0.58443347
0.58437626
0.58431472
0.58425871
0.58419993
0.58414362
0.58408559
0.58402782
0.583969
0.58390963
0.58384927
0.58378824
0.58372654
0.58366459
0.58360265
0.58354103
0.58347999
0.58341989
0.58336095
0.58330337
0.58324637
0.58318904
0.58313255
0.58307782
0.58302487
0.58297412
0.58292551
0.58287947
0.58283606
0.5827952
0.58275745
0.58272236
0.58268996
0.58266089
0.58263486
0.58261195
0.58259224
0.58257546
0.582562
0.58255111
0.58254346
0.58254071
0.58254106
0.58254457
0.58254915
0.58254992
0.58255711
0.58257303
0.58258802
0.58260392
0.58262273
0.58264329
0.58266554
0.58268976
0.58271568
0.58274317
0.58277242
0.5828032
0.5828355
0.58286916
0.58290385
0.5829396
0.58297613
0.58301329
0.58305107
0.58308935
0.58312802
0.58316727
0.58320709
0.58324735
0.58328805
0.58332894
0.58337002
0.58341146
0.58345294
0.58349457
0.58353642
0.58357842
0.58362107
0.58366389
0.58370737
0.58375133
0.58379643
0.58384214
0.58388962
0.58393771
0.58398889
0.58404058
0.58409718
0.58415419
0.5842192
0.58428416
0.58436164
0.58443851
0.58453373
0.58462887
0.58474869
0.58487489
0.58501847
0.5851701
0.58485633
0.58463188
0.58445879
0.58428907
0.58413726
0.58397857
0.58381076
0.5836239
0.5834178
0.58317382
0.58286493
0.582475
0.58208495
0.58169252
0.581291
0.58088351
0.58048565
0.58013416
0.5798026
0.57963086
0.57965165
0.5798639
0.57988537
0.57981347
0.57970467
0.57949118
0.579197
0.57854598
0.57801547
0.57663284
0.57425443
0.5703188
0.56640209
0.56259037
0.55688292
0.54539938
0.52636196
0.49268258
0.47827287
0.52740534
0.60692442
0.64904989
0.67399535
0.67290219
0.663152
0.62795516
0.59537036
0.54872784
0.51432031
0.58336307
0.60898243
0.62444026
0.60267078
0.58941393
0.58483677
0.58449953
0.58455833
0.58459772
0.58460627
0.58460805
0.58460854
0.58460994
0.58461236
0.58461475
0.58461614
0.58461721
0.58461874
0.58462015
0.58462184
0.5846229
0.58462297
0.58462026
0.5846134
0.58460192
0.58458796
0.58457862
0.58457002
0.58455195
0.58452364
0.5844899
0.58445812
0.58443606
0.58441463
0.58438116
0.58434543
0.58431774
0.58429628
0.58430674
0.58434734
0.5844857
0.58468429
0.58519285
0.58537199
0.58506145
0.58497845
0.58483122
0.58469653
0.58456506
0.58443447
0.5843238
0.58420463
0.58410352
0.58399524
0.58389695
0.58379431
0.58369637
0.58359606
0.58349673
0.58339624
0.58329547
0.5831937
0.5830915
0.58298889
0.58288651
0.58278475
0.58268412
0.58258498
0.58248796
0.58239338
0.5823015
0.58221032
0.58211901
0.58203009
0.58194433
0.58186174
0.58178296
0.58170783
0.58163699
0.58157049
0.58150825
0.58145101
0.58139805
0.58134943
0.58130604
0.58126745
0.58123375
0.58120504
0.58118091
0.58116193
0.58114721
0.58113652
0.58113376
0.58113691
0.58114456
0.58115325
0.58115521
0.58116747
0.58119416
0.5812191
0.58124521
0.58127588
0.58130924
0.58134526
0.58138436
0.58142612
0.58147041
0.5815175
0.58156706
0.58161907
0.58167326
0.58172917
0.58178678
0.58184569
0.58190568
0.58196674
0.58202866
0.58209131
0.58215502
0.58221973
0.58228528
0.58235165
0.58241843
0.58248567
0.58255361
0.58262173
0.58269025
0.58275926
0.58282866
0.58289929
0.58297035
0.58304267
0.58311597
0.58319134
0.58326789
0.58334765
0.58342858
0.58351496
0.58360237
0.58369839
0.58379526
0.58390611
0.58401704
0.58414986
0.58428189
0.58444619
0.58461044
0.58481873
0.58503772
0.58529072
0.58556558
0.58503447
0.58464319
0.58434129
0.58404508
0.58378072
0.58350442
0.58321351
0.58289019
0.58253421
0.58211338
0.5815833
0.58091657
0.58024859
0.57957662
0.57889
0.57819422
0.57751577
0.57691739
0.57634628
0.57603511
0.57604498
0.57639445
0.57644807
0.57633599
0.57616655
0.5758298
0.57536763
0.57431488
0.57355343
0.57131008
0.56775901
0.56154593
0.55529467
0.54986546
0.54177784
0.52546699
0.49844399
0.45071557
0.42863356
0.49140022
0.59787886
0.65779206
0.70584523
0.71257485
0.70676882
0.65950513
0.61273086
0.54258425
0.48631813
0.5716312
0.61190692
0.6449863
0.61443763
0.59313127
0.58507654
0.5844201
0.58451174
0.58457799
0.58459293
0.58459606
0.58459699
0.58459959
0.58460382
0.58460789
0.58461025
0.58461204
0.58461455
0.58461684
0.58461956
0.58462105
0.58462062
0.58461525
0.58460293
0.58458288
0.58455678
0.58453972
0.5845255
0.58449459
0.58444614
0.58438883
0.58433537
0.58429826
0.5842622
0.58420681
0.58414902
0.5841063
0.58407697
0.58410267
0.58418332
0.58442603
0.58477315
0.58559663
0.58577756
0.58521507
0.58509955
0.58482739
0.5846045
0.58438249
0.58416767
0.58398593
0.58379193
0.58362819
0.58345382
0.58329645
0.58313318
0.58297833
0.5828209
0.58266618
0.58251084
0.58235632
0.58220156
0.58204743
0.5818939
0.5817419
0.58159194
0.5814447
0.58130069
0.58116083
0.58102561
0.58089474
0.58076477
0.58063586
0.58051199
0.58039329
0.58027972
0.58017216
0.58007031
0.57997493
0.5798861
0.57980367
0.57972855
0.57965966
0.57959702
0.57954176
0.57949327
0.57945165
0.57941693
0.57938858
0.57936726
0.579352
0.57934213
0.57934124
0.57935098
0.5793681
0.57938373
0.57938891
0.57940876
0.57945013
0.57948846
0.57952788
0.57957352
0.57962274
0.57967561
0.57973263
0.57979331
0.57985751
0.57992561
0.57999717
0.5800722
0.58015028
0.58023082
0.58031376
0.58039858
0.580485
0.580573
0.58066231
0.58075281
0.58084496
0.58093871
0.58103385
0.58113034
0.58122759
0.58132572
0.58142508
0.58152492
0.58162558
0.58172722
0.58182969
0.58193425
0.58203976
0.58214747
0.58225695
0.58236993
0.58248501
0.58260539
0.58272793
0.58285924
0.58299256
0.5831396
0.58328846
0.58345959
0.58363153
0.58383835
0.58404501
0.58430348
0.58456315
0.58489479
0.58524454
0.58565551
0.58612011
0.58529392
0.58466547
0.5841798
0.5837042
0.5832807
0.58283931
0.58237693
0.58186426
0.58130088
0.58063669
0.579805
0.57876347
0.57771911
0.57666943
0.57559886
0.57451626
0.57346236
0.57253454
0.57163628
0.5711232
0.57109523
0.57161325
0.57172543
0.57157266
0.57133995
0.57086646
0.57022049
0.56868866
0.56775878
0.5644573
0.55973675
0.55105095
0.54199737
0.53517269
0.52505954
0.50445417
0.47003976
0.40879696
0.37696985
0.44767
0.5750311
0.65035147
0.72800475
0.74785746
0.75357647
0.69887543
0.63701276
0.54215406
0.46045467
0.55317726
0.607317
0.66846392
0.63102358
0.5990899
0.58554207
0.58430858
0.58444065
0.58454681
0.58457191
0.58457723
0.58457896
0.58458356
0.58459064
0.58459728
0.58460115
0.58460398
0.58460789
0.58461149
0.58461567
0.58461752
0.58461589
0.58460591
0.58458466
0.58455184
0.58450528
0.58447446
0.58445282
0.58440296
0.58432429
0.58423202
0.58414692
0.58408815
0.58403126
0.58394543
0.58385827
0.58379789
0.58376366
0.58381878
0.58396712
0.58436668
0.58493191
0.58617235
0.58627309
0.58530709
0.58516825
0.58470057
0.58435871
0.58401212
0.58368605
0.58341207
0.58312221
0.58287983
0.58262323
0.5823936
0.58215712
0.58193456
0.58171021
0.58149167
0.58127414
0.58105978
0.58084708
0.58063726
0.58043019
0.58022699
0.58002828
0.57983491
0.57964748
0.57946717
0.57929476
0.57912789
0.57896285
0.57880205
0.57864959
0.57850493
0.57836785
0.57823946
0.57811924
0.57800799
0.57790576
0.57781229
0.57772855
0.57765303
0.57758568
0.57752769
0.57747833
0.57743762
0.57740544
0.57738115
0.57736543
0.57735717
0.57735583
0.57736297
0.57738449
0.57741816
0.57744742
0.57745932
0.57749054
0.57755089
0.5776064
0.57766224
0.5777255
0.57779285
0.57786447
0.57794095
0.57802175
0.57810678
0.57819651
0.57829047
0.57838865
0.57849051
0.57859541
0.5787032
0.57881326
0.57892537
0.57903943
0.5791552
0.57927259
0.57939219
0.579514
0.5796378
0.57976349
0.57989038
0.58001865
0.58014875
0.58027977
0.58041217
0.58054619
0.58068167
0.58082034
0.58096069
0.58110447
0.58125109
0.58140304
0.58155835
0.58172161
0.58188839
0.58206803
0.5822512
0.58245426
0.5826608
0.58289964
0.58314095
0.58343286
0.58372668
0.58409655
0.58447116
0.58495372
0.5854659
0.58607951
0.58680832
0.5856313
0.58470354
0.58398514
0.58328427
0.58266234
0.58201767
0.58134574
0.58060357
0.57979004
0.57883482
0.57764675
0.57616624
0.57468133
0.57319093
0.57167405
0.57014332
0.56865531
0.56734557
0.56605601
0.56528404
0.56517759
0.56585957
0.56605825
0.56588092
0.565604
0.56501721
0.5642229
0.56222763
0.56131297
0.55693874
0.55132962
0.54065238
0.52872467
0.52108184
0.50988262
0.48649252
0.4465476
0.37395125
0.33014996
0.40073472
0.53904056
0.62399854
0.73260957
0.76918316
0.79389878
0.74016895
0.66476712
0.54757853
0.44069186
0.53048492
0.59236659
0.69047617
0.65246161
0.60827446
0.58641957
0.58416315
0.5843362
0.58449901
0.58453979
0.58454858
0.58455171
0.58455955
0.58457101
0.58458146
0.58458755
0.58459177
0.58459765
0.58460316
0.58460925
0.58461115
0.58460704
0.58458943
0.58455413
0.58450296
0.5844244
0.58436906
0.58433808
0.58426286
0.58414142
0.58400031
0.58387211
0.58378466
0.58370091
0.58357684
0.5834551
0.58337826
0.58334832
0.5834547
0.58370793
0.58432399
0.58517881
0.58690792
0.58679442
0.58523167
0.58510127
0.58435899
0.58387547
0.58337706
0.58292127
0.58254246
0.58214471
0.58181614
0.58147013
0.5811635
0.58085012
0.58055766
0.58026547
0.57998355
0.57970554
0.57943436
0.57916802
0.57890804
0.57865413
0.57840749
0.5781688
0.57793898
0.57771871
0.57750939
0.57731155
0.57712012
0.57693298
0.57675508
0.57658892
0.57643357
0.57628851
0.57615499
0.57603221
0.57592087
0.57582097
0.57573206
0.57565503
0.57558797
0.57553058
0.57548401
0.57544745
0.57542076
0.57540359
0.57539521
0.5753962
0.57540535
0.5754222
0.57544768
0.57548657
0.57554361
0.57559602
0.57561994
0.57566675
0.57575029
0.57582685
0.57590207
0.57598517
0.57607223
0.57616358
0.57625987
0.57636057
0.57646571
0.57657578
0.57669034
0.57680937
0.57693227
0.57705835
0.57718742
0.57731883
0.57745239
0.57758803
0.57772551
0.57786485
0.57800677
0.57815132
0.57829829
0.57844757
0.5785984
0.57875104
0.57890604
0.57906238
0.57922065
0.5793812
0.57954386
0.57971082
0.57988025
0.58005444
0.58023262
0.58041804
0.58060821
0.58080913
0.58101517
0.58123828
0.58146677
0.58172151
0.58198198
0.58228506
0.58259306
0.5829681
0.58334853
0.58383118
0.58432452
0.58496639
0.58565273
0.58649278
0.58754676
0.58601607
0.58476003
0.5837853
0.58283886
0.58200336
0.58114285
0.58025182
0.57927256
0.57820299
0.5769538
0.57541169
0.57349952
0.57158161
0.5696592
0.56770608
0.56573778
0.56382524
0.56213514
0.5604411
0.55937742
0.55914884
0.55993903
0.56023729
0.56007169
0.55979602
0.55916495
0.5583193
0.55600016
0.55538339
0.55018981
0.54416067
0.53274083
0.51835212
0.51055451
0.49948773
0.47525085
0.43217636
0.35120256
0.29379094
0.3562189
0.49422244
0.58117145
0.71669576
0.77084623
0.81928158
0.7767118
0.69150457
0.55708709
0.428815
0.50752544
0.56727255
0.70517947
0.6774141
0.62187873
0.58803421
0.583992
0.58418833
0.58442773
0.58449206
0.58450626
0.58451177
0.58452472
0.58454267
0.58455857
0.58456782
0.58457378
0.5845824
0.58459058
0.58459892
0.5846001
0.58459141
0.58456163
0.58450498
0.58442829
0.58430387
0.58420536
0.58416204
0.58405798
0.58388002
0.58367542
0.58349315
0.58337165
0.58325759
0.58309161
0.58293596
0.58285076
0.58284256
0.58302907
0.58342962
0.58431519
0.58551033
0.58772194
0.58722437
0.58486837
0.58480559
0.58371998
0.58309004
0.5824285
0.58183959
0.58135644
0.58085183
0.58044034
0.58000892
0.57963035
0.57924618
0.5788907
0.57853877
0.57820247
0.57787407
0.5775572
0.57724942
0.57695244
0.57666571
0.57639042
0.5761272
0.57587703
0.57564051
0.57541935
0.57521207
0.5750129
0.57482279
0.57464674
0.5744856
0.57433827
0.57420383
0.57408351
0.57397626
0.57388252
0.5738022
0.57373464
0.57368054
0.57363759
0.57360521
0.57358435
0.57357414
0.57357426
0.57358416