1.00029 	0.00013965 	-6.93097e-09 	1.38252e-20
1.00089 	0.000432432 	-6.1743e-08 	5.17305e-20
1.00153 	0.00075587 	-1.79039e-07 	3.7902e-20
1.0022 	0.00111567 	-3.03137e-07 	-3.19216e-24
1.00291 	0.00151606 	-3.46439e-07 	5.8225e-23
1.00367 	0.00196174 	-1.92057e-07 	5.86112e-23
1.00447 	0.00245782 	3.09256e-07 	-1.27704e-22
1.00532 	0.00300972 	1.34504e-06 	-1.28028e-22
1.00622 	0.00362288 	3.14549e-06 	7.43223e-23
1.00718 	0.00430223 	5.98606e-06 	7.88712e-23
1.00819 	0.00505134 	1.01877e-05 	4.64501e-24
1.00927 	0.00587118 	1.61137e-05 	-5.19125e-24
1.0104 	0.00675881 	2.41623e-05 	-1.03455e-23
1.01161 	0.00770638 	3.47524e-05 	-4.20708e-27
1.01289 	0.00870106 	4.83026e-05 	5.24649e-24
1.01424 	0.00972616 	6.51997e-05 	-5.99258e-22
1.01568 	0.0107629 	8.57579e-05 	-6.26759e-22
1.0172 	0.0117922 	0.000110171 	5.45256e-22
1.01882 	0.0127958 	0.000138462 	5.6883e-22
1.02053 	0.0137572 	0.000170451 	4.6476e-20
1.02234 	0.0146619 	0.000205746 	4.99851e-20
1.02427 	0.0154983 	0.000243769 	-3.94578e-20
1.02631 	0.0162585 	0.00028382 	-4.29694e-20
1.02847 	0.0169383 	0.000325156 	-3.21486e-20
1.03076 	0.0175379 	0.000367076 	-3.53708e-20
1.03319 	0.0180613 	0.000408989 	2.57258e-20
1.03576 	0.0185149 	0.000450444 	2.89283e-20
1.03849 	0.0189071 	0.000491145 	-4.44924e-21
1.04138 	0.0192464 	0.000530923 	-4.87633e-21
1.04444 	0.0195416 	0.000569721 	3.6321e-21
1.04769 	0.0198002 	0.000607554 	4.03174e-21
1.05114 	0.0200292 	0.000644487 	1.2346e-20
1.05479 	0.0202343 	0.000680614 	1.33456e-20
1.05866 	0.0204203 	0.000716041 	-1.62443e-20
1.06276 	0.0205912 	0.00075088 	-1.76359e-20
1.06711 	0.0207504 	0.000785235 	5.0455e-21
1.07172 	0.0209004 	0.000819205 	5.4351e-21
1.07661 	0.0210434 	0.000852874 	7.42274e-25
1.08179 	0.0211814 	0.000886319 	4.10091e-25
1.08728 	0.0213157 	0.000919598 	-5.47047e-26
1.09311 	0.0214477 	0.000952754 	-2.15174e-25
1.09928 	0.0215783 	0.000985817 	6.17819e-26
1.10582 	0.0217086 	0.0010188 	5.11194e-25
1.11275 	0.0218394 	0.0010517 	-6.13251e-26
1.1201 	0.0219712 	0.0010845 	5.30513e-25
1.12789 	0.0221049 	0.00111714 	8.47746e-25
1.13615 	0.0222408 	0.00114958 	-7.67031e-25
1.1449 	0.0223796 	0.00118173 	3.7169e-20
1.15418 	0.0225217 	0.00121348 	2.74283e-20
1.16402 	0.0226677 	0.00124473 	-3.0038e-20
1.17445 	0.022818 	0.0012753 	-9.41164e-21
1.1855 	0.0229731 	0.00130504 	-6.03199e-21
1.19722 	0.0231335 	0.00133376 	-2.89064e-21
1.20964 	0.0232999 	0.00136125 	1.34669e-20
1.2228 	0.0234726 	0.00138729 	3.34141e-21
1.23676 	0.0236524 	0.00141162 	3.13735e-21
1.25155 	0.02384 	0.00143402 	-1.7256e-20
1.26723 	0.0240359 	0.00145424 	-6.62557e-20
1.28386 	0.024241 	0.00147204 	-4.95814e-20
1.30148 	0.0244559 	0.0014872 	4.91486e-20
1.32016 	0.0246816 	0.00149952 	5.00996e-20
1.33996 	0.0249187 	0.00150885 	6.00716e-22
1.36094 	0.025168 	0.00151506 	6.84847e-23
1.38319 	0.02543 	0.00151807 	-8.86085e-23
1.40678 	0.0257052 	0.00151783 	-3.92524e-23
1.43177 	0.0259937 	0.00151436 	-1.0927e-22
1.45827 	0.0262954 	0.00150767 	8.4506e-20
1.48636 	0.0266099 	0.00149782 	8.5038e-20
1.51614 	0.0269361 	0.00148485 	-1.73557e-19
1.5477 	0.0272725 	0.00146879 	-1.75631e-19
1.58116 	0.0276173 	0.00144963 	8.80464e-20
1.61663 	0.027968 	0.00142734 	8.898e-20
1.65422 	0.0283219 	0.00140179 	-1.02406e-19
1.69408 	0.0286757 	0.00137282 	-2.04488e-19
1.73632 	0.029026 	0.00134022 	4.56709e-20
1.7811 	0.0293694 	0.00130371 	2.98775e-19
1.82857 	0.0297026 	0.001263 	1.015e-19
1.87889 	0.0300224 	0.00121777 	-4.6382e-20
1.93222 	0.0303263 	0.00116774 	4.12993e-21
1.98876 	0.0306106 	0.00111309 	-2.54515e-19
2.04695 	0.0308674 	0.00105554 	-2.47731e-19
2.10349 	0.0310887 	0.000998043 	2.24957e-19
2.15683 	0.0312741 	0.000942722 	2.14731e-19
2.20715 	0.0314284 	0.000890215 	2.70737e-24
2.25461 	0.0315562 	0.000840616 	-2.04853e-21
2.29939 	0.031661 	0.000793908 	-1.44972e-21
2.34164 	0.0317454 	0.000750003 	1.77068e-21
2.38149 	0.0318112 	0.000708769 	4.49858e-21
2.41909 	0.0318596 	0.00067005 	1.61563e-21
2.45455 	0.0318916 	0.00063368 	3.73259e-19
2.48801 	0.0319077 	0.000599494 	3.49361e-19
2.51957 	0.0319082 	0.000567329 	-4.21297e-19
2.54935 	0.0318931 	0.000537032 	-8.51842e-19
2.57744 	0.0318623 	0.000508459 	-1.83751e-19
2.60394 	0.0318155 	0.000481475 	7.41529e-19
2.62894 	0.0317523 	0.000455956 	2.12057e-19
2.65252 	0.0316724 	0.000431786 	-2.57987e-19
2.67477 	0.0315753 	0.000408861 	-1.22985e-24
2.69576 	0.0314605 	0.000387083 	6.52268e-25
2.71556 	0.0313279 	0.000366364 	-5.32695e-24
2.73424 	0.0311773 	0.000346625 	-6.19575e-24
2.75186 	0.0310089 	0.000327793 	-3.82114e-24
2.76848 	0.030823 	0.000309802 	-1.87498e-24
2.78416 	0.0306203 	0.000292594 	-4.08195e-19
2.79895 	0.0304017 	0.000276116 	-3.95028e-19
2.81291 	0.030168 	0.000260323 	4.43116e-19
2.82608 	0.0299204 	0.000245174 	8.86107e-19
2.8385 	0.0296603 	0.000230634 	-3.38408e-20
2.85021 	0.0293887 	0.000216672 	-9.61594e-19
2.86127 	0.0291068 	0.000203265 	2.81074e-20
2.87169 	0.0288156 	0.00019039 	4.92729e-19
2.88153 	0.028516 	0.000177997 	5.69157e-21
2.89081 	0.0282087 	0.000166011 	7.01342e-21
2.89956 	0.027895 	0.000154382 	2.08149e-25
2.90782 	0.0275759 	0.000143115 	5.8394e-19
2.91561 	0.027252 	0.000132249 	5.68867e-19
2.92296 	0.0269235 	0.000121825 	-6.07858e-19
2.9299 	0.02659 	0.000111863 	-5.96871e-19
2.93644 	0.0262512 	0.000102366 	-6.20322e-19
2.94261 	0.0259063 	9.3337e-05 	-6.08195e-19
2.94843 	0.0255544 	8.47767e-05 	6.65129e-19
2.95392 	0.0251946 	7.66864e-05 	6.56048e-19
2.9591 	0.0248256 	6.90652e-05 	4.59069e-21
2.96399 	0.0244459 	6.19104e-05 	-1.70507e-20
2.9686 	0.0240542 	5.52171e-05 	-1.46456e-20
2.97295 	0.0236487 	4.89774e-05 	7.88444e-19
2.97705 	0.0232275 	4.31861e-05 	7.57182e-19
2.98092 	0.0227884 	3.78434e-05 	-8.50921e-19
2.98457 	0.0223281 	3.29491e-05 	-8.19658e-19
2.98802 	0.021843 	2.85016e-05 	-1.34733e-24
2.99127 	0.0213304 	2.44942e-05 	-1.32162e-24
2.99434 	0.0207879 	2.09108e-05 	6.37605e-25
2.99723 	0.020214 	1.77289e-05 	1.34768e-24
2.99996 	0.0196071 	1.49233e-05 	1.41734e-24
3.00253 	0.0189664 	1.24671e-05 	1.15822e-18
3.00496 	0.0182914 	1.03329e-05 	1.11891e-18
3.00725 	0.0175823 	8.49271e-06 	-1.24931e-18
3.00941 	0.0168399 	6.91922e-06 	9.32278e-20
3.01145 	0.0160657 	5.58596e-06 	1.259e-18
3.01337 	0.0152612 	4.46622e-06 	-9.49558e-22
3.01518 	0.0144274 	3.53215e-06 	4.4863e-21
3.0169 	0.013566 	2.75766e-06 	-1.42636e-18
3.01851 	0.0126813 	2.1204e-06 	-1.39595e-18
3.02003 	0.0117806 	1.60176e-06 	9.44149e-25
3.02147 	0.0108732 	1.18555e-06 	-9.563e-25
3.02283 	0.00996873 	8.5684e-07 	-9.58109e-25
3.0241 	0.0090768 	6.01942e-07 	1.63423e-20
3.02531 	0.00820569 	4.08426e-07 	1.2366e-20
3.02645 	0.00736174 	2.65096e-07 	-1.06095e-20
3.02752 	0.00654927 	1.62019e-07 	-1.56951e-20
3.02854 	0.00577068 	9.05533e-08 	1.50388e-25
3.02949 	0.00502695 	4.33339e-08 	1.35889e-25
3.03039 	0.00431805 	1.42022e-08 	-4.142e-25
3.03124 	0.00364333 	-1.89609e-09 	-9.28189e-26
3.03204 	0.00300176 	-9.03556e-09 	4.22365e-26
3.0328 	0.00239215 	-1.04429e-08 	8.30287e-19
3.03352 	0.00181321 	-8.63025e-09 	8.73848e-19
3.03419 	0.00126366 	-5.53192e-09 	-7.25581e-19
3.03482 	0.0007422 	-2.57148e-09 	-7.73992e-19
3.03542 	0.000244169 	-6.35557e-10 	4.94861e-21
