0.00132759 	1.0849e-10 	2.42671e-13 	1.81069e-28 	1.0849e-10 	8.83876e-28 	1.0849e-10
0.00227498 	6.18111e-10 	2.89896e-12 	-6.06405e-28 	6.18116e-10 	4.99129e-27 	6.18113e-10
0.00327924 	2.2093e-09 	1.93743e-11 	3.88669e-27 	2.20935e-09 	-4.12126e-26 	2.20932e-09
0.00434378 	5.94326e-09 	8.76329e-11 	-1.01603e-28 	5.94358e-09 	-5.27248e-25 	5.94342e-09
0.00547221 	1.33516e-08 	3.04305e-10 	-2.84424e-25 	1.3353e-08 	-1.61979e-24 	1.33523e-08
0.00666839 	2.65487e-08 	8.76807e-10 	-1.88981e-24 	2.65537e-08 	8.8369e-24 	2.65512e-08
0.00793636 	4.83678e-08 	2.20036e-09 	6.49322e-24 	4.83833e-08 	1.58608e-23 	4.83755e-08
0.00928045 	8.25022e-08 	4.96024e-09 	-1.73948e-25 	8.25448e-08 	-3.60628e-23 	8.25235e-08
0.0107052 	1.33617e-07 	1.02446e-08 	4.87705e-24 	1.33723e-07 	-8.37719e-24 	1.3367e-07
0.0122155 	2.07357e-07 	1.96208e-08 	1.18944e-24 	2.07604e-07 	-2.96067e-23 	2.0748e-07
0.0138164 	3.10132e-07 	3.50662e-08 	-1.5132e-23 	3.10673e-07 	1.6522e-24 	3.10403e-07
0.0155135 	4.48513e-07 	5.85736e-08 	-4.12106e-24 	4.49628e-07 	1.18542e-22 	4.49071e-07
0.0173124 	6.28095e-07 	9.12696e-08 	8.75684e-23 	6.30282e-07 	3.39943e-22 	6.29189e-07
0.0192193 	8.51956e-07 	1.32144e-07 	3.71231e-22 	8.56038e-07 	-2.48637e-21 	8.53997e-07
0.0212406 	1.11919e-06 	1.77071e-07 	-2.4095e-21 	1.12645e-06 	9.42598e-22 	1.12282e-06
0.0233833 	1.42443e-06 	2.19205e-07 	2.15785e-21 	1.4367e-06 	6.30082e-21 	1.43056e-06
0.0256546 	1.75881e-06 	2.51013e-07 	7.15323e-22 	1.77853e-06 	-9.38846e-22 	1.76867e-06
0.0280623 	2.11211e-06 	2.66859e-07 	4.80925e-21 	2.14232e-06 	-4.26531e-21 	2.12721e-06
0.0306144 	2.47494e-06 	2.64395e-07 	-5.16361e-21 	2.51914e-06 	-5.06801e-21 	2.49704e-06
0.0333198 	2.84e-06 	2.44135e-07 	4.00542e-21 	2.90206e-06 	2.55192e-21 	2.87104e-06
0.0361875 	3.20244e-06 	2.08163e-07 	-7.3264e-21 	3.28649e-06 	-3.74988e-21 	3.24447e-06
0.0392274 	3.55946e-06 	1.58946e-07 	-1.07414e-21 	3.6698e-06 	5.35088e-21 	3.61463e-06
0.0424498 	3.90979e-06 	9.873e-08 	-8.74542e-22 	4.05086e-06 	-2.26014e-21 	3.98033e-06
0.0458656 	4.25316e-06 	2.91721e-08 	-8.17743e-21 	4.42947e-06 	5.66386e-23 	4.34132e-06
0.0494864 	4.58984e-06 	-4.85473e-08 	1.80255e-21 	4.80602e-06 	-4.32679e-21 	4.69793e-06
0.0533246 	4.92046e-06 	-1.33602e-07 	-2.6101e-20 	5.18122e-06 	9.63262e-21 	5.05085e-06
0.0573931 	5.24583e-06 	-2.2562e-07 	3.60875e-20 	5.55593e-06 	1.35638e-20 	5.40088e-06
0.0617059 	5.56678e-06 	-3.2434e-07 	6.07227e-21 	5.93109e-06 	-8.91671e-21 	5.74894e-06
0.0662775 	5.88417e-06 	-4.29688e-07 	1.68473e-20 	6.30765e-06 	-5.15946e-21 	6.09591e-06
0.0711236 	6.1989e-06 	-5.41803e-07 	-1.39275e-20 	6.68654e-06 	-7.02237e-21 	6.44271e-06
0.0762605 	6.51177e-06 	-6.6081e-07 	-5.3431e-21 	7.06867e-06 	4.01283e-21 	6.79022e-06
0.0817058 	6.82365e-06 	-7.86841e-07 	-6.2094e-22 	7.45491e-06 	-2.38482e-23 	7.13928e-06
0.087478 	7.13531e-06 	-9.2032e-07 	-6.62046e-21 	7.84607e-06 	-7.9233e-21 	7.49068e-06
0.0935966 	7.4476e-06 	-1.06148e-06 	-3.93206e-20 	8.24298e-06 	8.19338e-21 	7.84529e-06
0.100083 	7.76136e-06 	-1.21065e-06 	4.33788e-20 	8.64647e-06 	1.16445e-20 	8.20392e-06
0.106958 	8.07732e-06 	-1.36841e-06 	4.17961e-21 	9.05718e-06 	-8.94045e-21 	8.56725e-06
0.114246 	8.39643e-06 	-1.53499e-06 	1.1623e-21 	9.47599e-06 	-9.85246e-22 	8.93621e-06
0.121971 	8.71954e-06 	-1.71083e-06 	3.76121e-25 	9.90348e-06 	-2.68439e-22 	9.31151e-06
0.13016 	9.04755e-06 	-1.89661e-06 	-6.00766e-23 	1.03404e-05 	1.61381e-21 	9.694e-06
0.138841 	9.38143e-06 	-2.09272e-06 	7.64319e-21 	1.07875e-05 	8.51849e-21 	1.00845e-05
0.148043 	9.72225e-06 	-2.29965e-06 	4.4764e-20 	1.12454e-05 	-8.23276e-21 	1.04838e-05
0.157797 	1.00711e-05 	-2.51802e-06 	-4.93034e-20 	1.17149e-05 	-1.25894e-20 	1.0893e-05
0.168136 	1.04291e-05 	-2.74842e-06 	-5.55446e-21 	1.21965e-05 	1.40755e-20 	1.13128e-05
0.179097 	1.07975e-05 	-2.99155e-06 	2.02962e-20 	1.2691e-05 	-7.00999e-22 	1.17442e-05
0.190715 	1.11777e-05 	-3.24788e-06 	-1.6111e-20 	1.3199e-05 	-6.42352e-21 	1.21883e-05
0.20303 	1.15709e-05 	-3.51796e-06 	-1.43322e-21 	1.37212e-05 	2.79289e-21 	1.2646e-05
0.216085 	1.19788e-05 	-3.80256e-06 	-1.39241e-21 	1.42584e-05 	1.0396e-21 	1.31186e-05
0.229923 	1.24029e-05 	-4.10249e-06 	1.99718e-21 	1.48111e-05 	7.88911e-21 	1.3607e-05
0.244592 	1.28448e-05 	-4.41818e-06 	2.76492e-20 	1.53801e-05 	-2.86589e-21 	1.41124e-05
0.260142 	1.33061e-05 	-4.75025e-06 	-2.44136e-20 	1.59661e-05 	-1.20254e-20 	1.46361e-05
0.276625 	1.37886e-05 	-5.09937e-06 	-3.24197e-21 	1.65698e-05 	1.36375e-20 	1.51792e-05
0.294097 	1.4294e-05 	-5.46609e-06 	1.97897e-20 	1.71916e-05 	-7.87146e-22 	1.57428e-05
0.312618 	1.48241e-05 	-5.85085e-06 	-1.68964e-20 	1.78323e-05 	-1.28387e-20 	1.63282e-05
0.332251 	1.53803e-05 	-6.25401e-06 	-3.38247e-21 	1.84921e-05 	6.32848e-21 	1.69362e-05
0.353063 	1.59642e-05 	-6.67573e-06 	-2.4735e-21 	1.91713e-05 	1.15457e-21 	1.75678e-05
0.375123 	1.6577e-05 	-7.11609e-06 	2.36646e-21 	1.98699e-05 	-1.8371e-21 	1.82235e-05
0.398508 	1.72196e-05 	-7.57475e-06 	-3.7398e-21 	2.05873e-05 	5.20528e-22 	1.89035e-05
0.423296 	1.78925e-05 	-8.05092e-06 	4.34559e-21 	2.13225e-05 	-9.13774e-22 	1.96075e-05
0.449573 	1.85954e-05 	-8.54352e-06 	7.1932e-21 	2.20736e-05 	-1.03131e-20 	2.03345e-05
0.477427 	1.93271e-05 	-9.05068e-06 	1.57957e-21 	2.28378e-05 	2.26081e-21 	2.10822e-05
0.506952 	2.00854e-05 	-9.57183e-06 	-7.62723e-21 	2.36106e-05 	1.67464e-20 	2.18472e-05
0.53825 	2.08688e-05 	-1.01239e-05 	-9.63712e-22 	2.43824e-05 	-6.51816e-21 	2.26257e-05
0.571427 	2.16858e-05 	-1.07198e-05 	2.23074e-24 	2.51351e-05 	-7.93424e-22 	2.34123e-05
0.606595 	2.25765e-05 	-1.11351e-05 	-9.9138e-22 	2.58238e-05 	3.99725e-22 	2.42007e-05
0.643874 	2.34813e-05 	-1.15169e-05 	2.97017e-21 	2.64711e-05 	-4.54652e-22 	2.4975e-05
0.683391 	2.43217e-05 	-1.18634e-05 	-3.70003e-21 	2.7038e-05 	3.97912e-22 	2.56795e-05
0.725279 	2.50186e-05 	-1.21378e-05 	-8.73031e-21 	2.74472e-05 	7.16264e-22 	2.62331e-05
0.769683 	2.55015e-05 	-1.23053e-05 	5.28529e-21 	2.76134e-05 	-1.07259e-21 	2.65577e-05
0.816751 	2.57102e-05 	-1.23379e-05 	3.78419e-21 	2.74688e-05 	-4.49269e-22 	2.65896e-05
0.866645 	2.55968e-05 	-1.22162e-05 	4.04e-24 	2.69713e-05 	7.53812e-22 	2.62841e-05
0.919534 	2.51331e-05 	-1.1932e-05 	-6.72106e-21 	2.61069e-05 	2.87697e-21 	2.56198e-05
0.975597 	2.43215e-05 	-1.14897e-05 	-4.02432e-20 	2.48947e-05 	1.49164e-21 	2.4608e-05
1.03503 	2.32068e-05 	-1.0909e-05 	4.35815e-20 	2.33925e-05 	-8.11477e-21 	2.32997e-05
1.09802 	2.18755e-05 	-1.02256e-05 	4.56856e-20 	2.16965e-05 	-3.44581e-22 	2.17861e-05
1.1648 	2.04413e-05 	-9.48705e-06 	-4.49394e-20 	1.99288e-05 	6.0336e-21 	2.01852e-05
1.23559 	1.9019e-05 	-8.74752e-06 	-2.7582e-20 	1.82145e-05 	2.51191e-21 	1.86166e-05
1.31062 	1.77019e-05 	-8.05412e-06 	-1.19567e-19 	1.66462e-05 	4.12152e-21 	1.71736e-05
1.39016 	1.65373e-05 	-7.4097e-06 	1.17057e-19 	1.52547e-05 	-9.96676e-21 	1.58965e-05
1.47447 	1.54974e-05 	-6.69063e-06 	2.62917e-20 	1.40415e-05 	9.46631e-22 	1.47693e-05
1.56124 	1.45644e-05 	-6.04102e-06 	-2.28335e-20 	1.29955e-05 	3.36068e-21 	1.37796e-05
1.64556 	1.37342e-05 	-5.49428e-06 	-1.39634e-19 	1.20926e-05 	3.58958e-21 	1.29136e-05
1.72509 	1.29924e-05 	-5.02946e-06 	1.00039e-19 	1.12894e-05 	-1.92933e-21 	1.2141e-05
1.80013 	1.23104e-05 	-4.61075e-06 	-2.78274e-19 	1.05548e-05 	5.4019e-21 	1.14327e-05
1.87091 	1.16682e-05 	-4.21637e-06 	3.4426e-19 	9.87363e-06 	-1.57278e-20 	1.07711e-05
1.93769 	1.1056e-05 	-3.83613e-06 	1.70543e-21 	9.23842e-06 	7.00942e-21 	1.01472e-05
2.00069 	1.04696e-05 	-3.4651e-06 	-1.73537e-19 	8.64683e-06 	2.03115e-21 	9.55823e-06
2.06012 	9.90905e-06 	-3.10251e-06 	1.77522e-19 	8.09828e-06 	-8.3869e-21 	9.00361e-06
2.11618 	9.37497e-06 	-2.74953e-06 	7.61109e-20 	7.59308e-06 	5.22484e-22 	8.48413e-06
2.16907 	8.86909e-06 	-2.40739e-06 	-8.0808e-22 	7.13039e-06 	1.2245e-21 	7.99979e-06
2.21896 	8.39193e-06 	-2.07779e-06 	7.79587e-22 	6.70921e-06 	-9.67409e-24 	7.55057e-06
2.26603 	7.94362e-06 	-1.76196e-06 	8.1532e-22 	6.32786e-06 	-9.94577e-24 	7.13587e-06
2.31043 	7.52466e-06 	-1.46027e-06 	4.63568e-24 	5.98386e-06 	1.52801e-25 	6.75434e-06
2.35232 	7.13452e-06 	-1.17364e-06 	-8.96389e-24 	5.67494e-06 	5.24333e-26 	6.40478e-06
2.39184 	6.77281e-06 	-9.02545e-07 	7.46932e-24 	5.39867e-06 	1.20631e-21 	6.0858e-06
2.42912 	6.43931e-06 	-6.46293e-07 	-4.9997e-20 	5.15256e-06 	2.71064e-21 	5.79589e-06
2.46429 	6.13326e-06 	-4.0489e-07 	-7.65005e-20 	4.93456e-06 	-2.02994e-21 	5.53384e-06
2.49746 	5.85435e-06 	-1.78313e-07 	6.95896e-20 	4.74265e-06 	-3.90323e-21 	5.29843e-06
2.52876 	5.60215e-06 	3.38772e-08 	5.2326e-20 	4.57516e-06 	2.28756e-21 	5.08863e-06
2.55829 	5.37638e-06 	2.32158e-07 	-5.22408e-20 	4.43058e-06 	3.37996e-21 	4.9035e-06
2.57809 	5.23233e-06 	3.6398e-07 	-8.52218e-20 	4.34112e-06 	-2.18476e-22 	4.78674e-06
2.59161 	5.13892e-06 	4.53238e-07 	-3.62367e-20 	4.28492e-06 	-3.75541e-21 	4.71194e-06
2.61242 	5.00264e-06 	5.89397e-07 	5.28431e-20 	4.20529e-06 	-6.95229e-21 	4.60396e-06
2.63721 	4.85382e-06 	7.49434e-07 	1.3677e-19 	4.12272e-06 	-3.30677e-21 	4.48823e-06
2.66059 	4.72956e-06 	8.97891e-07 	1.03096e-19 	4.05919e-06 	7.00153e-21 	4.39437e-06
2.68265 	4.62925e-06 	1.03537e-06 	-9.59333e-20 	4.01384e-06 	9.13051e-21 	4.32153e-06
2.70346 	4.55181e-06 	1.16258e-06 	-1.20545e-19 	3.98591e-06 	1.35599e-23 	4.26887e-06
2.7231 	4.49612e-06 	1.28044e-06 	-6.22741e-20 	3.97446e-06 	-9.80571e-21 	4.23532e-06
2.74162 	4.46086e-06 	1.38987e-06 	1.2899e-19 	3.97841e-06 	-1.059e-20 	4.21964e-06
2.75909 	4.4444e-06 	1.49137e-06 	1.59625e-19 	3.99664e-06 	8.56585e-21 	4.2205e-06
2.77557 	4.44496e-06 	1.58561e-06 	-8.79394e-20 	4.02796e-06 	9.04907e-21 	4.23647e-06
2.79112 	4.46087e-06 	1.67365e-06 	-3.63732e-20 	4.07099e-06 	-2.05667e-21 	4.26593e-06
2.80579 	4.49034e-06 	1.7562e-06 	-2.72364e-20 	4.12438e-06 	-1.36708e-21 	4.30732e-06
2.81963 	4.53148e-06 	1.83381e-06 	-1.30706e-22 	4.18684e-06 	-5.12477e-21 	4.35912e-06
2.83268 	4.58258e-06 	1.90716e-06 	5.88475e-20 	4.25707e-06 	3.53313e-21 	4.41982e-06
2.845 	4.64209e-06 	1.97655e-06 	-5.7208e-20 	4.33378e-06 	1.71077e-21 	4.48793e-06
2.85662 	4.70846e-06 	2.0421e-06 	2.01405e-20 	4.41579e-06 	-9.31269e-21 	4.56211e-06
2.86758 	4.78022e-06 	2.10409e-06 	7.95203e-20 	4.50202e-06 	3.81743e-21 	4.64111e-06
2.87792 	4.85611e-06 	2.16353e-06 	-3.20873e-20 	4.59143e-06 	3.01418e-21 	4.72374e-06
2.88767 	4.93491e-06 	2.22064e-06 	2.95509e-20 	4.68306e-06 	7.89884e-21 	4.80899e-06
2.89687 	5.01542e-06 	2.27124e-06 	-1.10883e-19 	4.77617e-06 	1.26426e-20 	4.8958e-06
2.90555 	5.09649e-06 	2.31436e-06 	-1.12125e-19 	4.86974e-06 	-1.36628e-20 	4.98311e-06
2.91374 	5.17673e-06 	2.35485e-06 	4.70262e-20 	4.96193e-06 	-7.99406e-21 	5.06933e-06
2.92147 	5.25381e-06 	2.39359e-06 	-9.72464e-21 	5.05037e-06 	1.28819e-21 	5.15209e-06
2.92876 	5.32494e-06 	2.42937e-06 	2.8629e-20 	5.13247e-06 	2.0285e-21 	5.2287e-06
2.93563 	5.38734e-06 	2.46108e-06 	-2.6453e-20 	5.20568e-06 	-2.30834e-21 	5.2965e-06
2.94212 	5.43844e-06 	2.4877e-06 	4.21757e-20 	5.26761e-06 	-4.62952e-21 	5.35303e-06
2.94824 	5.47596e-06 	2.50796e-06 	1.5877e-20 	5.31607e-06 	4.59434e-21 	5.39602e-06
2.95401 	5.4979e-06 	2.52083e-06 	2.06391e-22 	5.34907e-06 	1.65667e-21 	5.42348e-06
2.95945 	5.50245e-06 	2.52565e-06 	7.83545e-22 	5.36481e-06 	3.74524e-21 	5.43363e-06
2.96459 	5.48806e-06 	2.52177e-06 	-2.3063e-20 	5.36165e-06 	7.02715e-21 	5.42486e-06
2.96944 	5.45333e-06 	2.50842e-06 	-4.55897e-20 	5.33811e-06 	-7.02924e-21 	5.39572e-06
2.97401 	5.39695e-06 	2.48486e-06 	2.1812e-20 	5.2928e-06 	-2.80949e-21 	5.34487e-06
2.97832 	5.3177e-06 	2.45059e-06 	-1.77449e-20 	5.22439e-06 	-4.16721e-21 	5.27104e-06
2.98239 	5.21437e-06 	2.40512e-06 	3.66993e-20 	5.13157e-06 	-6.45289e-21 	5.17297e-06
2.98623 	5.08571e-06 	2.34778e-06 	1.91355e-20 	5.01301e-06 	6.28456e-21 	5.04936e-06
2.98985 	4.9305e-06 	2.278e-06 	-5.65177e-27 	4.86736e-06 	6.49948e-21 	4.89893e-06
2.99326 	4.74746e-06 	2.19507e-06 	-1.24358e-20 	4.69329e-06 	5.05602e-21 	4.72038e-06
2.99649 	4.53543e-06 	2.09826e-06 	-2.05308e-20 	4.48956e-06 	-7.94751e-21 	4.5125e-06
2.99953 	4.29348e-06 	1.98748e-06 	1.81222e-20 	4.25518e-06 	-1.08054e-21 	4.27433e-06
3.00239 	4.02114e-06 	1.86248e-06 	-6.31467e-21 	3.98967e-06 	7.1861e-21 	4.00541e-06
3.0051 	3.71874e-06 	1.72327e-06 	-1.0774e-20 	3.69332e-06 	-1.07547e-20 	3.70604e-06
3.00765 	3.3876e-06 	1.56987e-06 	2.14307e-20 	3.36744e-06 	-5.38788e-21 	3.37752e-06
3.01006 	3.02987e-06 	1.39802e-06 	8.32168e-21 	3.01429e-06 	1.50675e-20 	3.02209e-06
3.01233 	2.64912e-06 	1.20129e-06 	-1.79085e-20 	2.63752e-06 	-7.2407e-21 	2.64332e-06
3.01447 	2.25315e-06 	9.91373e-07 	1.47465e-20 	2.24487e-06 	-5.50966e-21 	2.24901e-06
3.01649 	1.8547e-06 	7.79376e-07 	6.99389e-22 	1.84907e-06 	2.4238e-21 	1.85188e-06
3.0184 	1.47035e-06 	5.77307e-07 	2.43697e-21 	1.46673e-06 	-2.34343e-21 	1.46855e-06
3.0202 	1.11801e-06 	3.98794e-07 	2.77367e-21 	1.11584e-06 	6.53231e-21 	1.11692e-06
3.0219 	8.12991e-07 	2.54724e-07 	-4.45143e-21 	8.11776e-07 	1.44138e-21 	8.12384e-07
3.0235 	5.64341e-07 	1.49529e-07 	-4.7111e-22 	5.63715e-07 	-2.23066e-21 	5.64028e-07
3.02501 	3.73323e-07 	8.03332e-08 	2.68131e-22 	3.73028e-07 	-8.35426e-23 	3.73175e-07
3.02643 	2.3465e-07 	3.93339e-08 	-3.57662e-23 	2.34524e-07 	1.12059e-22 	2.34587e-07
3.02778 	1.39295e-07 	1.74304e-08 	-2.90703e-24 	1.39247e-07 	-4.70239e-23 	1.39271e-07
3.02905 	7.72404e-08 	6.89862e-09 	1.03758e-23 	7.72239e-08 	7.51152e-24 	7.72321e-08
