0.00132759 	-0.0003525 	-3.90256e-08 	3.30284e-18
0.00227498 	-0.000596115 	-1.1657e-07 	-1.81383e-18
0.00327924 	-0.000848054 	-2.422e-07 	-2.02291e-18
0.00434378 	-0.00110804 	-4.25929e-07 	-1.19521e-19
0.00547221 	-0.00137568 	-6.77883e-07 	5.93513e-19
0.00666839 	-0.0016504 	-1.00964e-06 	4.44966e-18
0.00793636 	-0.00193141 	-1.43459e-06 	-4.65137e-18
0.00928045 	-0.00221759 	-1.96807e-06 	-5.16678e-19
0.0107052 	-0.00250734 	-2.62761e-06 	-4.9768e-19
0.0122155 	-0.0027983 	-3.43314e-06 	-9.20064e-20
0.0138164 	-0.00308717 	-4.4073e-06 	2.5745e-19
0.0155135 	-0.00336935 	-5.57561e-06 	1.03861e-19
0.0173124 	-0.0036389 	-6.96635e-06 	-5.11551e-19
0.0192193 	-0.00388897 	-8.60979e-06 	-2.4861e-18
0.0212406 	-0.00411277 	-1.0536e-05 	8.65297e-18
0.0233833 	-0.00430518 	-1.27716e-05 	-4.58482e-18
0.0256546 	-0.00446395 	-1.53372e-05 	-1.06047e-18
0.0280623 	-0.00458992 	-1.82463e-05 	-4.16546e-18
0.0306144 	-0.00468631 	-2.15072e-05 	2.84481e-18
0.0333198 	-0.00475747 	-2.51251e-05 	-1.22854e-18
0.0361875 	-0.00480778 	-2.91049e-05 	1.78677e-18
0.0392274 	-0.00484115 	-3.34526e-05 	1.72653e-19
0.0424498 	-0.00486074 	-3.81762e-05 	3.54723e-20
0.0458656 	-0.00486903 	-4.32864e-05 	8.10987e-19
0.0494864 	-0.00486788 	-4.87959e-05 	-1.35487e-20
0.0533246 	-0.00485871 	-5.47201e-05 	1.78576e-18
0.0573931 	-0.00484253 	-6.10767e-05 	-2.00454e-18
0.0617059 	-0.00482011 	-6.78857e-05 	-3.25288e-19
0.0662775 	-0.00479199 	-7.51689e-05 	-6.93737e-19
0.0711236 	-0.00475852 	-8.29505e-05 	5.03552e-19
0.0762605 	-0.00471996 	-9.12565e-05 	1.58578e-19
0.0817058 	-0.00467644 	-0.000100115 	1.73336e-20
0.087478 	-0.00462802 	-0.000109557 	1.54226e-19
0.0935966 	-0.00457466 	-0.000119613 	8.88821e-19
0.100083 	-0.00451628 	-0.000130319 	-8.68385e-19
0.106958 	-0.00445273 	-0.00014171 	-9.62148e-20
0.114246 	-0.00438379 	-0.000153827 	-2.40211e-20
0.121971 	-0.00430922 	-0.000166711 	-6.81256e-24
0.13016 	-0.00422869 	-0.000180405 	-6.89618e-25
0.138841 	-0.00414181 	-0.000194956 	-1.42256e-19
0.148043 	-0.00404815 	-0.000210414 	-7.00673e-19
0.157797 	-0.00394718 	-0.000226832 	7.92167e-19
0.168136 	-0.00383833 	-0.000244265 	5.06783e-20
0.179097 	-0.00372092 	-0.000262771 	-3.51426e-19
0.190715 	-0.00359418 	-0.000282414 	2.58827e-19
0.20303 	-0.00345724 	-0.000303262 	4.45602e-20
0.216085 	-0.00330912 	-0.000325384 	2.4491e-20
0.229923 	-0.00314867 	-0.000348855 	-4.9697e-20
0.244592 	-0.00297462 	-0.000373755 	-5.95886e-19
0.260142 	-0.00278549 	-0.000400171 	5.51825e-19
0.276625 	-0.00257962 	-0.000428191 	4.11631e-20
0.294097 	-0.0023551 	-0.000457913 	-6.0128e-19
0.312618 	-0.00210973 	-0.000489441 	5.58407e-19
0.332251 	-0.00184103 	-0.000522881 	9.49355e-20
0.353063 	-0.00154611 	-0.000558351 	-5.86806e-20
0.375123 	-0.0012217 	-0.000595974 	5.2896e-20
0.398508 	-0.000864017 	-0.000635875 	6.17945e-20
0.423296 	-0.000468727 	-0.000678188 	-5.43481e-20
0.449573 	-3.08532e-05 	-0.00072304 	2.19391e-19
0.477427 	0.000455321 	-0.000770565 	8.27912e-19
0.506952 	0.000996353 	-0.000820912 	-9.36173e-19
0.53825 	0.00160002 	-0.000874168 	-1.38581e-19
0.571427 	0.00227871 	-0.000930235 	1.08994e-22
0.606595 	0.00305998 	-0.000989402 	-5.20672e-20
0.643874 	0.0039774 	-0.00105184 	2.37067e-21
0.683391 	0.0050476 	-0.00111631 	2.35756e-20
0.725279 	0.0062725 	-0.00118121 	-1.01123e-19
0.769683 	0.00764648 	-0.00124441 	3.03584e-20
0.816751 	0.00916012 	-0.00130334 	9.70394e-20
0.866645 	0.0107986 	-0.00135512 	1.00645e-22
0.919534 	0.0125378 	-0.00139691 	-1.10132e-19
0.975597 	0.0143416 	-0.0014262 	-6.72623e-19
1.03503 	0.0161628 	-0.00144114 	6.82329e-19
1.09802 	0.0179486 	-0.00144079 	6.21552e-19
1.1648 	0.019648 	-0.00142537 	-5.16589e-19
1.23559 	0.0212213 	-0.00139633 	-2.10569e-19
1.31062 	0.0226489 	-0.00135641 	-8.64894e-19
1.39016 	0.0239348 	-0.00130771 	7.21347e-19
1.47447 	0.0250979 	-0.00125063 	1.5738e-19
1.56124 	0.0261273 	-0.00118906 	-9.58045e-20
1.64556 	0.0269971 	-0.00112862 	-5.85019e-19
1.72509 	0.0277186 	-0.00107162 	3.64932e-19
1.80013 	0.0283227 	-0.00101781 	-9.64861e-19
1.87091 	0.0288339 	-0.000966755 	1.12765e-18
1.93769 	0.0292697 	-0.00091822 	3.70251e-20
2.00069 	0.0296426 	-0.000872068 	-5.02585e-19
2.06012 	0.029962 	-0.000828219 	5.0422e-19
2.11618 	0.0302351 	-0.000786615 	2.19681e-19
2.16907 	0.0304678 	-0.000747194 	-4.07658e-23
2.21896 	0.0306649 	-0.000709885 	-1.84564e-25
2.26603 	0.0308305 	-0.000674609 	1.23748e-23
2.31043 	0.0309677 	-0.000641274 	1.40274e-23
2.35232 	0.0310792 	-0.000609784 	-2.74801e-23
2.39184 	0.0311672 	-0.000580039 	2.75384e-23
2.42912 	0.0312334 	-0.000551935 	-2.03123e-19
2.46429 	0.0312789 	-0.000525372 	-2.92293e-19
2.49746 	0.0313047 	-0.00050025 	3.21297e-19
2.52876 	0.0313114 	-0.000476472 	2.29818e-19
2.55829 	0.0312995 	-0.000453947 	-2.76384e-19
2.57809 	0.0312808 	-0.00043878 	-4.40025e-19
2.59161 	0.031261 	-0.000428377 	-1.54394e-19
2.61242 	0.0312201 	-0.000412299 	3.35739e-19
2.63721 	0.0311525 	-0.000393015 	9.37465e-19
2.66059 	0.0310661 	-0.000374659 	7.03518e-19
2.68265 	0.0309607 	-0.000357162 	-8.52851e-19
2.70346 	0.0308361 	-0.000340458 	-1.0438e-18
2.7231 	0.0306923 	-0.000324486 	-5.69968e-19
2.74162 	0.0305292 	-0.00030919 	1.47624e-18
2.75909 	0.030347 	-0.000294515 	1.76151e-18
2.77557 	0.0301458 	-0.000280411 	-1.12056e-18
2.79112 	0.029926 	-0.000266832 	-4.13674e-19
2.80579 	0.0296878 	-0.000253735 	-4.85239e-19
2.81963 	0.0294316 	-0.00024108 	3.67218e-20
2.83268 	0.0291578 	-0.000228833 	1.01679e-18
2.845 	0.0288665 	-0.000216963 	-1.11286e-18
2.85662 	0.0285581 	-0.000205447 	5.9089e-19
2.86758 	0.028233 	-0.000194264 	1.74264e-18
2.87792 	0.0278912 	-0.000183402 	-7.44923e-19
2.88767 	0.0275329 	-0.000172853 	7.94508e-19
2.89687 	0.0271568 	-0.000162577 	-3.34307e-18
2.90555 	0.0267606 	-0.000152518 	-3.28886e-18
2.91374 	0.0263424 	-0.000142638 	1.65825e-18
2.92147 	0.025902 	-0.000132945 	-4.12282e-19
2.92876 	0.0254403 	-0.000123474 	1.10575e-18
2.93563 	0.0249585 	-0.00011426 	-1.18071e-18
2.94212 	0.0244578 	-0.000105343 	1.97513e-18
2.94824 	0.0239393 	-9.67611e-05 	7.20444e-19
2.95401 	0.0234042 	-8.85472e-05 	-7.85431e-24
2.95945 	0.0228533 	-8.07288e-05 	-5.9338e-24
2.96459 	0.0222872 	-7.33263e-05 	-1.65326e-18
2.96944 	0.0217063 	-6.63536e-05 	-3.12953e-18
2.97401 	0.0211108 	-5.98181e-05 	1.59272e-18
2.97832 	0.0205006 	-5.37211e-05 	-1.65305e-18
2.98239 	0.019875 	-4.8059e-05 	3.57185e-18
2.98623 	0.0192335 	-4.28234e-05 	1.78244e-18
2.98985 	0.018575 	-3.80028e-05 	-6.20794e-25
2.99326 	0.0178983 	-3.35824e-05 	-2.0448e-18
2.99649 	0.0172022 	-2.95457e-05 	-2.95238e-18
2.99953 	0.0164851 	-2.58744e-05 	3.16922e-18
3.00239 	0.0157457 	-2.25494e-05 	-2.30117e-18
3.0051 	0.0149831 	-1.95511e-05 	-2.17805e-18
3.00765 	0.0141962 	-1.68577e-05 	7.31332e-18
3.01006 	0.0133835 	-1.44437e-05 	2.39981e-18
3.01233 	0.0125421 	-1.22822e-05 	-9.47369e-18
3.01447 	0.0116703 	-1.03492e-05 	1.3015e-17
3.01649 	0.0107713 	-8.63025e-06 	-3.63096e-19
3.0184 	0.00985227 	-7.11293e-06 	7.72738e-18
3.0202 	0.00892419 	-5.7852e-06 	4.9391e-18
3.0219 	0.00800077 	-4.63568e-06 	-2.36944e-17
3.0235 	0.00709617 	-3.65256e-06 	1.69195e-18
3.02501 	0.00622254 	-2.82285e-06 	1.5716e-18
3.02643 	0.00538844 	-2.13239e-06 	-1.45498e-18
3.02778 	0.00459845 	-1.5665e-06 	1.27035e-18
3.02905 	0.00385398 	-1.11074e-06 	1.31499e-19
