0.00227498 	-0.000595373 	1.52486e-07 	-3.14258e-18
0.00327924 	-0.000849835 	3.09419e-07 	-8.36434e-19
0.00434378 	-0.0011145 	5.30715e-07 	-1.66114e-19
0.00547221 	-0.00138933 	8.21552e-07 	2.23137e-20
0.00666839 	-0.00167416 	1.18806e-06 	1.09376e-18
0.00793636 	-0.00196869 	1.63577e-06 	1.884e-18
0.00928045 	-0.00227236 	2.16925e-06 	-2.28394e-18
0.0107052 	-0.00258425 	2.79165e-06 	-7.69921e-19
0.0122155 	-0.00290289 	3.50392e-06 	-1.40411e-18
0.0138164 	-0.00322601 	4.30358e-06 	1.01816e-18
0.0155135 	-0.00355025 	5.18298e-06 	-2.42254e-18
0.0173124 	-0.00387089 	6.12712e-06 	-4.14095e-20
0.0192193 	-0.00418177 	7.11146e-06 	2.30037e-18
0.0212406 	-0.00447565 	8.10083e-06 	4.36989e-19
0.0233833 	-0.00474518 	9.05096e-06 	4.32163e-19
0.0256546 	-0.00498423 	9.91373e-06 	3.40125e-20
0.0280623 	-0.00518913 	1.06446e-05 	-1.94557e-19
0.0306144 	-0.00535923 	1.12096e-05 	1.39566e-19
0.0333198 	-0.00549642 	1.15874e-05 	1.19566e-18
0.0361875 	-0.00560428 	1.17689e-05 	-1.12582e-18
0.0392274 	-0.00568698 	1.17532e-05 	-2.30816e-19
0.0424498 	-0.00574858 	1.15433e-05 	3.19961e-19
0.0458656 	-0.00579265 	1.11437e-05 	8.25695e-19
0.0494864 	-0.00582212 	1.05583e-05 	-8.42852e-19
0.0533246 	-0.00583933 	9.78939e-06 	-5.65713e-19
0.0573931 	-0.00584608 	8.83754e-06 	5.69212e-19
0.0617059 	-0.00584376 	7.70123e-06 	-2.0841e-19
0.0662775 	-0.0058334 	6.37707e-06 	-6.32721e-19
0.0711236 	-0.00581581 	4.85985e-06 	4.8118e-19
0.0762605 	-0.00579152 	3.14257e-06 	5.00723e-20
0.0817058 	-0.00576095 	1.21659e-06 	-8.59782e-19
0.087478 	-0.00572435 	-9.28456e-07 	8.40266e-19
0.0935966 	-0.00568189 	-3.30491e-06 	1.07623e-19
0.100083 	-0.00563359 	-5.92692e-06 	-1.78745e-21
0.106958 	-0.00557947 	-8.80963e-06 	5.50063e-24
0.114246 	-0.00551942 	-1.19706e-05 	-7.89221e-26
0.121971 	-0.00545328 	-1.54298e-05 	-3.17253e-26
0.13016 	-0.00538083 	-1.92092e-05 	-6.28911e-21
0.138841 	-0.00530176 	-2.33338e-05 	-3.0988e-22
0.148043 	-0.00521573 	-2.78315e-05 	8.81097e-21
0.157797 	-0.0051223 	-3.27335e-05 	1.53109e-19
0.168136 	-0.00502097 	-3.80754e-05 	9.1072e-19
0.179097 	-0.00491116 	-4.38973e-05 	-9.31693e-19
0.190715 	-0.00479222 	-5.02447e-05 	-1.28833e-19
0.20303 	-0.00466338 	-5.71695e-05 	1.56424e-20
0.216085 	-0.00452377 	-6.47316e-05 	-1.59956e-23
0.229923 	-0.00437238 	-7.29996e-05 	1.71419e-23
0.244592 	-0.0042081 	-8.20533e-05 	-2.85886e-26
0.260142 	-0.00402961 	-9.19851e-05 	-1.61256e-24
0.276625 	-0.00383544 	-0.000102903 	8.12714e-20
0.294097 	-0.00362388 	-0.000114934 	4.63839e-19
0.312618 	-0.00339299 	-0.000128227 	-5.01741e-19
0.332251 	-0.0031405 	-0.000142958 	-5.25768e-20
0.353063 	-0.00286383 	-0.000159333 	-4.23121e-23
0.375123 	-0.00255994 	-0.0001776 	-3.14273e-24
0.398508 	-0.00222533 	-0.000198049 	7.54686e-23
0.423296 	-0.00185587 	-0.000221021 	-2.17769e-19
0.449573 	-0.00144676 	-0.000246896 	-1.12056e-18
0.477427 	-0.000992244 	-0.000276162 	1.35216e-18
0.506952 	-0.000485472 	-0.000309368 	4.84389e-20
0.53825 	8.17464e-05 	-0.00034712 	1.663e-20
0.571427 	0.00072 	-0.000389989 	4.86059e-20
0.606595 	0.00144891 	-0.000439176 	2.21458e-19
0.643874 	0.00230824 	-0.000496501 	1.78865e-18
0.683391 	0.00334593 	-0.000563967 	-4.9726e-19
0.725279 	0.00459229 	-0.000640972 	-1.69555e-18
0.769683 	0.00605875 	-0.000724816 	-1.2379e-19
0.816751 	0.00773848 	-0.000810927 	3.51041e-24
0.866645 	0.00960391 	-0.000893933 	-9.14365e-23
0.919534 	0.011613 	-0.00096866 	9.86241e-23
0.975597 	0.0137103 	-0.00103043 	-5.41765e-19
1.03503 	0.0158298 	-0.00107492 	-1.0938e-18
1.09802 	0.0178976 	-0.00109851 	1.02505e-18
1.14864 	0.0194015 	-0.00110213 	8.50368e-19
1.18301 	0.0203336 	-0.00109757 	6.39543e-20
1.23559 	0.0216073 	-0.0010816 	-1.40072e-19
1.31062 	0.0231728 	-0.00104671 	-1.62898e-22
1.39016 	0.0245413 	-0.00100259 	2.20426e-23
1.47447 	0.0257327 	-0.000956633 	2.46961e-22
1.56124 	0.0267597 	-0.000913415 	4.17308e-20
1.64556 	0.0276225 	-0.00087335 	2.14046e-20
1.72509 	0.0283454 	-0.000835294 	-2.65131e-19
1.80013 	0.0289577 	-0.000798189 	-1.18369e-18
1.87091 	0.0294799 	-0.000761736 	1.40805e-18
1.93769 	0.0299266 	-0.000726098 	1.72155e-19
2.00069 	0.0303087 	-0.000691496 	5.97908e-19
2.06012 	0.0306351 	-0.00065816 	-4.767e-19
2.11618 	0.0309133 	-0.000626265 	5.45328e-19
2.16907 	0.0311493 	-0.000595904 	-6.8992e-19
2.21896 	0.0313482 	-0.000567117 	-6.85068e-19
2.26603 	0.0315145 	-0.000539889 	5.88806e-19
2.31043 	0.0316522 	-0.000514172 	8.34353e-20
2.35232 	0.0317639 	-0.000489898 	-5.66315e-25
2.39184 	0.0318522 	-0.000466993 	-1.97217e-23
2.42912 	0.0319189 	-0.000445375 	-1.3912e-19
2.46429 	0.0319654 	-0.000424963 	-1.46235e-19
2.49746 	0.0319928 	-0.000405675 	1.59339e-19
2.52876 	0.0320017 	-0.000387434 	1.6545e-19
2.55829 	0.0319926 	-0.000370166 	4.28931e-19
2.57764 	0.0319769 	-0.00035881 	4.67349e-19
2.59116 	0.0319592 	-0.000350841 	-7.01907e-19
2.61242 	0.0319216 	-0.00033826 	-2.22752e-18
2.63721 	0.0318596 	-0.000323504 	-7.04674e-19
2.66059 	0.0317797 	-0.000309474 	2.16476e-18
2.68265 	0.0316818 	-0.00029612 	9.10753e-19
2.70346 	0.0315658 	-0.000283396 	-2.64396e-19
2.7231 	0.0314316 	-0.000271259 	-7.59278e-19
2.74162 	0.0312795 	-0.000259668 	8.89792e-19
2.75909 	0.0311095 	-0.000248586 	2.48534e-19
2.77557 	0.0309221 	-0.000237975 	8.42659e-19
2.79112 	0.0307176 	-0.0002278 	-9.40188e-19
2.80579 	0.0304967 	-0.000218024 	2.9524e-19
2.81963 	0.0302597 	-0.000208613 	-3.46935e-19
2.83268 	0.0300071 	-0.000199531 	-1.86879e-18
2.845 	0.0297393 	-0.000190746 	2.02388e-18
2.85662 	0.0294566 	-0.000182225 	2.47569e-19
2.86758 	0.0291591 	-0.00017394 	-5.87418e-19
2.87792 	0.0288469 	-0.000165865 	1.54361e-18
2.88767 	0.02852 	-0.000157977 	-9.62106e-19
2.89687 	0.0281781 	-0.000150261 	2.93183e-18
2.90555 	0.0278211 	-0.000142703 	-2.83813e-18
2.91374 	0.0274483 	-0.0001353 	-9.19903e-19
2.92147 	0.0270579 	-0.000128004 	-3.45543e-18
2.92876 	0.0266472 	-0.000120767 	-2.8786e-19
2.93563 	0.0262144 	-0.000113558 	3.13222e-18
2.94212 	0.0257588 	-0.000106389 	-2.96212e-18
2.94824 	0.0252804 	-9.92872e-05 	4.22149e-18
2.95401 	0.0247789 	-9.229e-05 	4.33722e-18
2.95945 	0.0242548 	-8.54347e-05 	-4.56583e-18
2.96459 	0.0237081 	-7.87585e-05 	-8.38298e-18
2.96944 	0.023139 	-7.2297e-05 	8.29338e-18
2.97401 	0.0225479 	-6.60814e-05 	7.65022e-19
2.97832 	0.0219347 	-6.01383e-05 	1.92893e-20
2.98239 	0.0212993 	-5.44891e-05 	-6.8667e-22
2.98623 	0.0206413 	-4.91494e-05 	-3.06599e-20
2.98985 	0.0199603 	-4.41297e-05 	-5.33499e-24
2.99326 	0.0192555 	-3.94356e-05 	4.77221e-19
2.99649 	0.0185259 	-3.50683e-05 	-5.88096e-19
2.99953 	0.0177706 	-3.1025e-05 	-6.36768e-18
3.00239 	0.0169887 	-2.73003e-05 	5.88181e-18
3.0051 	0.0161795 	-2.38859e-05 	8.89558e-19
3.00765 	0.0153427 	-2.07715e-05 	7.18136e-24
3.01006 	0.0144783 	-1.79454e-05 	-9.63009e-25
3.01233 	0.0135855 	-1.53893e-05 	1.2713e-18
3.01447 	0.0126621 	-1.30825e-05 	8.33345e-18
3.01649 	0.0117081 	-1.10061e-05 	7.62822e-19
3.0184 	0.01073 	-9.15158e-06 	6.5133e-18
3.0202 	0.00973852 	-7.50961e-06 	-1.63071e-17
3.0219 	0.00874763 	-6.07051e-06 	-1.51772e-18
3.0235 	0.00777256 	-4.82418e-06 	1.87111e-21
3.02501 	0.00682688 	-3.75895e-06 	5.10422e-19
3.02643 	0.00592056 	-2.8614e-06 	5.40721e-19
3.02778 	0.00505937 	-2.11689e-06 	-2.05277e-19
3.02905 	0.00424546 	-1.51035e-06 	-4.66484e-19
3.03024 	0.00347855 	-1.02704e-06 	1.37255e-19
3.03137 	0.00275699 	-6.53006e-07 	6.06645e-18
3.03244 	0.00207849 	-3.75429e-07 	-5.07692e-18
3.03344 	0.00144055 	-1.8254e-07 	6.70605e-19
3.03439 	0.000840717 	-6.19524e-08 	5.23073e-18
3.03528 	0.000274942 	-1.02039e-09 	-2.94989e-18
