0.00043385 	-8.61155e-05 	-1.5143e-08 	1.80794e-25
0.00132759 	-0.00025981 	-7.75279e-08 	3.29867e-19
0.00227498 	-0.000438259 	-2.18189e-07 	2.56768e-18
0.00327924 	-0.000621695 	-4.51343e-07 	-2.62306e-18
0.00434378 	-0.000809713 	-7.88188e-07 	-9.28604e-19
0.00547221 	-0.00100179 	-1.24365e-06 	-2.49017e-18
0.00666839 	-0.00119726 	-1.8352e-06 	2.39504e-18
0.00793636 	-0.00139525 	-2.58217e-06 	-2.94907e-18
0.00928045 	-0.0015946 	-3.50571e-06 	7.49283e-18
0.0107052 	-0.00179379 	-4.62896e-06 	-2.48815e-18
0.0122155 	-0.00199071 	-5.97689e-06 	1.35962e-18
0.0138164 	-0.00218254 	-7.5759e-06 	-1.60084e-17
0.0155135 	-0.0023656 	-9.45321e-06 	1.1487e-17
0.0173124 	-0.00253542 	-1.16356e-05 	2.02114e-18
0.0192193 	-0.00268722 	-1.41478e-05 	2.49233e-19
0.0212406 	-0.00281683 	-1.70098e-05 	1.81891e-18
0.0233833 	-0.00292183 	-2.02357e-05 	1.07416e-17
0.0256546 	-0.00300215 	-2.38341e-05 	-8.53611e-18
0.0280623 	-0.00305982 	-2.78101e-05 	-1.75915e-18
0.0306144 	-0.00309805 	-3.21691e-05 	-5.47322e-19
0.0333198 	-0.00312034 	-3.69172e-05 	1.15947e-20
0.0361875 	-0.0031298 	-4.20632e-05 	3.30023e-18
0.0392274 	-0.00312898 	-4.76183e-05 	-2.61757e-18
0.0424498 	-0.00311984 	-5.3596e-05 	-2.91564e-19
0.0458656 	-0.00310382 	-6.00125e-05 	-1.17109e-18
0.0494864 	-0.00308195 	-6.68863e-05 	9.02176e-19
0.0533246 	-0.00305499 	-7.42381e-05 	2.50476e-21
0.0573931 	-0.00302347 	-8.20909e-05 	-1.56375e-19
0.0617059 	-0.00298772 	-9.04698e-05 	-1.51907e-18
0.0662775 	-0.00294797 	-9.94017e-05 	1.50028e-18
0.0711236 	-0.00290435 	-0.000108916 	1.66959e-19
0.0762605 	-0.0028569 	-0.000119043 	1.86703e-19
0.0817058 	-0.00280561 	-0.000129817 	1.26896e-18
0.087478 	-0.00275041 	-0.000141273 	-1.24414e-18
0.0935966 	-0.00269116 	-0.000153447 	-1.52367e-19
0.100083 	-0.0026277 	-0.00016638 	-1.71456e-20
0.106958 	-0.00255982 	-0.000180113 	-1.29901e-19
0.114246 	-0.00248726 	-0.00019469 	-1.60696e-18
0.121971 	-0.00240971 	-0.000210157 	1.56725e-18
0.13016 	-0.00232683 	-0.000226561 	2.61596e-19
0.138841 	-0.00223822 	-0.000243955 	-7.96674e-20
0.148043 	-0.00214341 	-0.00026239 	-2.50426e-20
0.157797 	-0.00204189 	-0.000281922 	-6.30943e-20
0.168136 	-0.00193307 	-0.000302606 	-5.84636e-19
0.179097 	-0.00181629 	-0.000324505 	4.65182e-19
0.190715 	-0.00169078 	-0.000347679 	1.62104e-19
0.20303 	-0.0015557 	-0.00037219 	8.68071e-21
0.216085 	-0.00141009 	-0.000398102 	6.50873e-24
0.229923 	-0.00125285 	-0.000425481 	1.28838e-24
0.244592 	-0.00108274 	-0.000454393 	1.41398e-23
0.260142 	-0.000898355 	-0.000484903 	-1.04319e-24
0.276625 	-0.000698096 	-0.000517075 	7.21763e-20
0.294097 	-0.000480147 	-0.000550971 	7.64982e-19
0.312618 	-0.000242441 	-0.000586647 	-7.21424e-19
0.332251 	1.73736e-05 	-0.000624156 	-1.26451e-19
0.353063 	0.000301973 	-0.000663538 	1.323e-25
0.375123 	0.0006144 	-0.000704823 	-2.63537e-24
0.398508 	0.000958114 	-0.000748025 	-2.955e-23
0.423296 	0.00133704 	-0.000793131 	6.42117e-20
0.449573 	0.00175563 	-0.000840102 	1.99937e-18
0.477427 	0.00221887 	-0.000888849 	-1.78519e-18
0.506952 	0.0027324 	-0.000939263 	-3.11674e-19
0.53825 	0.00330247 	-0.000991202 	-5.4654e-24
0.571427 	0.00393769 	-0.00104409 	-1.24761e-23
0.606595 	0.00465902 	-0.00109727 	5.78434e-23
0.643874 	0.00549391 	-0.00115003 	1.75008e-24
0.683391 	0.00645543 	-0.00120055 	1.17674e-19
0.725279 	0.00754318 	-0.00124754 	-1.35238e-20
0.769683 	0.00875027 	-0.00128982 	-1.12952e-19
0.816751 	0.0100679 	-0.00132591 	8.63113e-22
0.866645 	0.0114852 	-0.00135414 	-4.40321e-24
0.919534 	0.0129868 	-0.00137275 	1.32394e-19
0.975597 	0.014549 	-0.0013803 	7.94452e-19
1.03503 	0.0161396 	-0.00137588 	-7.97671e-19
1.09802 	0.0177202 	-0.00135942 	-7.61084e-19
1.1648 	0.0192521 	-0.00133172 	5.97273e-19
1.23559 	0.0207026 	-0.00129431 	6.2705e-20
1.31062 	0.0220503 	-0.00124917 	-1.65317e-23
1.39016 	0.0232874 	-0.00119816 	6.02203e-22
1.47447 	0.0244145 	-0.00114277 	-1.68834e-22
1.56124 	0.0254163 	-0.00108523 	-2.38351e-19
1.64556 	0.026272 	-0.00102761 	-1.34559e-18
1.72509 	0.0269893 	-0.000971959 	1.30715e-18
1.80013 	0.0275921 	-0.000918955 	4.97619e-19
1.87091 	0.0281018 	-0.000868999 	6.50797e-19
1.93769 	0.0285356 	-0.000821975 	-6.40881e-19
2.00069 	0.0289063 	-0.000777694 	-2.39398e-19
2.06012 	0.0292236 	-0.000735985 	8.11276e-23
2.11618 	0.0294949 	-0.000696684 	2.97236e-19
2.16907 	0.0297262 	-0.000659647 	1.19498e-19
2.21896 	0.0299224 	-0.00062474 	-1.64241e-18
2.26603 	0.0300871 	-0.000591834 	7.34951e-19
2.31043 	0.0302237 	-0.00056081 	5.46658e-19
2.35232 	0.0303345 	-0.000531553 	6.00104e-23
2.39184 	0.0304216 	-0.000503951 	4.88311e-23
2.42912 	0.0304865 	-0.000477899 	7.53422e-19
2.46429 	0.0305304 	-0.000453292 	9.63236e-19
2.49746 	0.0305541 	-0.000430035 	-1.07476e-18
2.52876 	0.030558 	-0.000408031 	-8.44352e-19
2.55829 	0.0305424 	-0.000387192 	0
2.57764 	0.0305214 	-0.000373479 	2.90404e-24
2.59116 	0.030499 	-0.000363856 	1.07613e-23
2.61242 	0.0304528 	-0.000348662 	1.64026e-23
2.63721 	0.0303784 	-0.000330814 	-8.89691e-25
2.66059 	0.030284 	-0.000313812 	-1.95187e-23
2.68265 	0.0301691 	-0.000297589 	9.06202e-25
2.70346 	0.0300337 	-0.000282078 	3.2899e-23
2.7231 	0.0298773 	-0.000267221 	4.78952e-19
2.74162 	0.0297 	-0.000252961 	4.40791e-19
2.75909 	0.0295018 	-0.000239247 	-5.33576e-19
2.77557 	0.0292828 	-0.000226036 	-4.95651e-19
2.79112 	0.0290433 	-0.000213288 	5.93054e-24
2.80579 	0.0287835 	-0.00020097 	-8.74205e-21
2.81963 	0.0285041 	-0.000189056 	-6.29692e-19
2.83268 	0.0282055 	-0.000177526 	6.6486e-19
2.845 	0.0278881 	-0.000166365 	7.85213e-22
2.85662 	0.0275528 	-0.000155568 	-2.66169e-18
2.86758 	0.0271999 	-0.000145131 	-2.88449e-18
2.87792 	0.0268289 	-0.000135032 	6.91518e-18
2.88767 	0.0264374 	-0.000125225 	4.67645e-18
2.89687 	0.0260237 	-0.000115677 	6.03435e-18
2.90555 	0.025588 	-0.000106407 	-8.19098e-18
2.91374 	0.0251324 	-9.74567e-05 	-2.92739e-18
2.92147 	0.0246592 	-8.88641e-05 	2.85172e-18
2.92876 	0.0241708 	-8.06683e-05 	-3.03978e-18
2.93563 	0.0236692 	-7.29033e-05 	-1.64162e-18
2.94212 	0.0231559 	-6.5595e-05 	1.7576e-18
2.94824 	0.0226323 	-5.87605e-05 	3.24445e-18
2.95401 	0.0220993 	-5.24085e-05 	-3.41245e-18
2.95945 	0.0215575 	-4.654e-05 	-5.50372e-18
2.96459 	0.021007 	-4.11492e-05 	-7.04657e-18
2.96944 	0.0204478 	-3.62248e-05 	7.44291e-18
2.97401 	0.0198795 	-3.17508e-05 	3.78398e-18
2.97832 	0.0193013 	-2.77075e-05 	1.28096e-24
2.98239 	0.0187121 	-2.40723e-05 	-8.23127e-28
2.98623 	0.0181106 	-2.08207e-05 	2.19688e-18
2.98985 	0.0174953 	-1.79271e-05 	6.48015e-18
2.99326 	0.0168644 	-1.53651e-05 	-1.16431e-17
2.99649 	0.016216 	-1.31084e-05 	-1.03339e-17
2.99953 	0.0155482 	-1.11313e-05 	1.38795e-17
3.00239 	0.0148593 	-9.40835e-06 	8.95525e-19
3.0051 	0.0141477 	-7.91374e-06 	-1.2823e-18
3.00765 	0.0134109 	-6.61922e-06 	-1.48929e-18
3.01006 	0.0126457 	-5.49804e-06 	-4.56024e-18
3.01233 	0.0118494 	-4.52656e-06 	4.984e-18
3.01447 	0.0110226 	-3.68864e-06 	1.5623e-18
3.01649 	0.0101694 	-2.97089e-06 	-1.76606e-18
3.0184 	0.00929733 	-2.36117e-06 	1.58085e-18
3.0202 	0.00841771 	-1.84884e-06 	2.06905e-17
3.0219 	0.00754395 	-1.42408e-06 	-1.32126e-17
3.0235 	0.00668949 	-1.07725e-06 	-7.12742e-18
3.02501 	0.00586551 	-7.98599e-07 	3.27431e-18
3.02643 	0.00507955 	-5.784e-07 	7.06957e-18
3.02778 	0.00433551 	-4.07341e-07 	-6.47026e-18
3.02905 	0.00363438 	-2.76925e-07 	-3.11803e-18
