/*--------------------------------*- C++ -*----------------------------------*\
| =========                 |                                                 |
| \\      /  F ield         | OpenFOAM: The Open Source CFD Toolbox           |
|  \\    /   O peration     | Version:  2.4.0                                 |
|   \\  /    A nd           | Web:      www.OpenFOAM.org                      |
|    \\/     M anipulation  |                                                 |
\*---------------------------------------------------------------------------*/
FoamFile
{
    version     2.0;
    format      ascii;
    class       volScalarField;
    location    "5000";
    object      k;
}
// * * * * * * * * * * * * * * * * * * * * * * * * * * * * * * * * * * * * * //

dimensions      [0 2 -2 0 0 0 0];

internalField   nonuniform List<scalar> 
15600
(
6.4435441e-06
4.8957783e-06
5.8041082e-06
1.270817e-07
1.2045203e-06
1.5092194e-06
5.4521513e-07
3.7315583e-07
2.3653155e-07
1.8710217e-07
1.3128751e-07
1.1402514e-07
1.0936054e-07
1.1794396e-07
1.4016436e-07
1.7702699e-07
2.1827864e-07
2.5478187e-07
2.8515877e-07
3.0344307e-07
3.0242301e-07
2.8816683e-07
2.692969e-07
2.457246e-07
2.0606026e-07
1.732058e-07
1.2059818e-07
1.5012358e-07
3.7016113e-07
6.3184326e-07
8.5254695e-07
1.0713828e-06
1.2664368e-06
1.4504019e-06
1.6191153e-06
1.7761954e-06
1.9195917e-06
2.0494391e-06
2.1639247e-06
2.262071e-06
2.3426974e-06
2.405303e-06
2.4495243e-06
2.4755843e-06
2.4839696e-06
2.4748532e-06
2.4489791e-06
2.4074814e-06
2.3516686e-06
2.2830507e-06
2.203109e-06
2.1136922e-06
2.016602e-06
1.9135363e-06
1.8062207e-06
1.6961424e-06
1.5847456e-06
1.4735035e-06
1.3637477e-06
1.2563862e-06
1.1520247e-06
1.0516261e-06
9.5567655e-07
8.6464619e-07
7.7885188e-07
6.9842576e-07
6.2349098e-07
5.5404464e-07
4.900947e-07
4.3155955e-07
3.7831117e-07
3.3015855e-07
2.8684409e-07
2.4808806e-07
2.1360319e-07
1.8311058e-07
1.5634011e-07
1.3297251e-07
1.1273877e-07
9.5311701e-08
8.0435305e-08
6.7828114e-08
5.7274615e-08
4.8466862e-08
4.1251837e-08
3.5316253e-08
3.0623583e-08
2.6865357e-08
2.4205464e-08
2.2293847e-08
2.1853051e-08
2.1740514e-08
3.0051251e-08
3.5431926e-08
3.3845143e-08
3.1402308e-08
2.5207069e-08
1.8898923e-08
2.3215631e-08
4.6088102e-08
9.4961498e-08
1.8482217e-07
3.2999145e-07
5.4452266e-07
8.1240782e-07
1.1070091e-06
1.4693878e-06
1.9201934e-06
2.5454732e-06
3.4149367e-06
5.041956e-06
7.8566203e-06
1.2658278e-05
2.0862129e-05
3.5729503e-05
5.490612e-05
5.6779844e-05
2.7708297e-05
1.1667477e-05
1.8683153e-06
3.8082666e-06
3.508863e-06
2.6565207e-06
5.0125338e-07
2.4052924e-07
2.3175777e-07
9.8552005e-08
6.9574961e-08
4.7338157e-08
3.8722974e-08
2.9616359e-08
2.7294863e-08
2.7574902e-08
3.0432597e-08
3.6274656e-08
4.5900978e-08
5.8393831e-08
7.0079723e-08
8.1706539e-08
9.3332798e-08
1.0359709e-07
1.12985e-07
1.227877e-07
1.3259184e-07
1.3869866e-07
1.4257674e-07
1.3740293e-07
1.4606119e-07
2.1046303e-07
3.3164959e-07
4.143502e-07
5.0646266e-07
5.8877675e-07
6.7111993e-07
7.4987215e-07
8.2718071e-07
9.0199795e-07
9.7437046e-07
1.0436436e-06
1.1092943e-06
1.1707969e-06
1.2276923e-06
1.2795974e-06
1.3262494e-06
1.3675255e-06
1.4032227e-06
1.4332236e-06
1.4575532e-06
1.4762456e-06
1.4896243e-06
1.497485e-06
1.5005964e-06
1.4990914e-06
1.4933869e-06
1.483995e-06
1.470819e-06
1.4543916e-06
1.4351751e-06
1.4144275e-06
1.3923609e-06
1.3677563e-06
1.3421444e-06
1.3155054e-06
1.2881066e-06
1.2602204e-06
1.2319495e-06
1.2034154e-06
1.1746781e-06
1.1458356e-06
1.1170097e-06
1.0883196e-06
1.0598759e-06
1.031712e-06
1.0038083e-06
9.7609107e-07
9.484915e-07
9.2101599e-07
8.9361086e-07
8.6624573e-07
8.388694e-07
8.1110363e-07
7.8327445e-07
7.5501063e-07
7.2612811e-07
6.9644548e-07
6.6537055e-07
6.325842e-07
5.9702741e-07
5.5830009e-07
5.1412896e-07
4.646191e-07
3.9080227e-07
3.5440644e-07
3.7600567e-07
4.0810638e-07
4.4326792e-07
4.808947e-07
5.1987636e-07
5.6849214e-07
6.3152533e-07
7.0508452e-07
7.8596837e-07
8.7409922e-07
9.7473475e-07
1.0586145e-06
1.132451e-06
1.2198771e-06
1.3322271e-06
1.4846167e-06
1.6955482e-06
2.1706234e-06
2.9047288e-06
4.105113e-06
6.1405753e-06
9.5170849e-06
1.3782566e-05
1.4072173e-05
8.0928257e-06
4.3086293e-06
2.6911758e-06
2.266636e-05
2.2002749e-05
1.44085e-05
3.7684328e-06
5.2947988e-07
1.2526022e-07
1.5402111e-07
1.2296773e-07
1.0240297e-07
9.0792581e-08
8.2156616e-08
8.3392945e-08
9.101257e-08
1.0536974e-07
1.2897307e-07
1.6586045e-07
2.1946282e-07
2.7107464e-07
3.2875241e-07
3.9937744e-07
4.8020843e-07
5.6853406e-07
6.6508959e-07
7.667399e-07
8.5702875e-07
9.2269531e-07
9.3921336e-07
9.745915e-07
1.238518e-06
1.8990696e-06
2.3046352e-06
2.7854295e-06
3.2156011e-06
3.6579184e-06
4.0887086e-06
4.5207765e-06
4.9481824e-06
5.3711447e-06
5.7865243e-06
6.1913073e-06
6.5826774e-06
6.9576061e-06
7.313506e-06
7.6480952e-06
7.9598764e-06
8.2470614e-06
8.5079838e-06
8.7416201e-06
8.9468308e-06
9.1245033e-06
9.2714674e-06
9.391717e-06
9.4843221e-06
9.5507212e-06
9.5930361e-06
9.6089133e-06
9.6009431e-06
9.5711332e-06
9.5278276e-06
9.4717025e-06
9.3926317e-06
9.3014747e-06
9.1975558e-06
9.0824486e-06
8.9579267e-06
8.8246481e-06
8.6834226e-06
8.5347217e-06
8.3792962e-06
8.218182e-06
8.0524414e-06
7.8831396e-06
7.7108124e-06
7.5356086e-06
7.3572641e-06
7.1755433e-06
6.9907862e-06
6.8029188e-06
6.6119937e-06
6.4179658e-06
6.2181694e-06
6.0154419e-06
5.8071303e-06
5.5921348e-06
5.369211e-06
5.1340941e-06
4.8843451e-06
4.6120657e-06
4.3139743e-06
3.9727682e-06
3.5885294e-06
3.015412e-06
2.7244898e-06
2.8875808e-06
3.1393728e-06
3.4159572e-06
3.7157996e-06
4.0264124e-06
4.4006383e-06
4.866681e-06
5.3860201e-06
5.9178082e-06
6.4463038e-06
6.9967638e-06
7.3596692e-06
7.6169668e-06
7.9077065e-06
8.2971888e-06
8.810322e-06
9.5177625e-06
1.1460746e-05
1.4136662e-05
1.8296819e-05
2.5273974e-05
3.5503648e-05
4.5279581e-05
4.5456255e-05
3.3049843e-05
2.0934396e-05
1.8911285e-05
9.0225511e-05
8.7810772e-05
5.7229737e-05
1.5250148e-05
1.9507824e-06
2.6901643e-07
5.2621859e-07
4.313855e-07
3.7073314e-07
3.3224367e-07
3.0640152e-07
3.1385605e-07
3.4508912e-07
4.0253637e-07
4.9599701e-07
6.4045944e-07
8.5113999e-07
1.0538881e-06
1.2818083e-06
1.5637359e-06
1.889888e-06
2.2483598e-06
2.6407061e-06
3.0543959e-06
3.4249164e-06
3.695181e-06
3.7705374e-06
3.9095774e-06
4.9408946e-06
7.5621824e-06
9.1622531e-06
1.106596e-05
1.2769043e-05
1.4522646e-05
1.6231982e-05
1.7948087e-05
1.9647346e-05
2.1330622e-05
2.2985559e-05
2.4600188e-05
2.6163377e-05
2.7663036e-05
2.9088832e-05
3.043157e-05
3.1685073e-05
3.2842154e-05
3.3896086e-05
3.4842597e-05
3.5676911e-05
3.6402386e-05
3.7006035e-05
3.750366e-05
3.7891245e-05
3.8174262e-05
3.8361115e-05
3.8442076e-05
3.8427129e-05
3.8324318e-05
3.8166958e-05
3.7957677e-05
3.7655568e-05
3.7304182e-05
3.6900733e-05
3.6451478e-05
3.5963496e-05
3.5439419e-05
3.4882484e-05
3.429459e-05
3.3678756e-05
3.3039164e-05
3.2380108e-05
3.1705905e-05
3.101875e-05
3.0319291e-05
2.9606505e-05
2.8879494e-05
2.8139662e-05
2.7386764e-05
2.6621051e-05
2.58424e-05
2.504011e-05
2.4225659e-05
2.33884e-05
2.2523949e-05
2.1627323e-05
2.0681403e-05
1.9676378e-05
1.8580498e-05
1.7380527e-05
1.6006799e-05
1.4459705e-05
1.2153565e-05
1.0984256e-05
1.1644065e-05
1.2660889e-05
1.37782e-05
1.4990112e-05
1.6246158e-05
1.775765e-05
1.9634929e-05
2.1720776e-05
2.384911e-05
2.5955357e-05
2.8136468e-05
2.9554013e-05
3.0547531e-05
3.1668993e-05
3.317614e-05
3.515631e-05
3.7897042e-05
4.5488345e-05
5.5846647e-05
7.186511e-05
9.8630729e-05
0.00013723931
0.00017078475
0.00017123534
0.00012878468
8.2646032e-05
7.5979846e-05
0.00025783113
0.00025118165
0.00016433669
4.4202707e-05
5.6294772e-06
7.1405065e-07
1.4736697e-06
1.2158763e-06
1.0487206e-06
9.4098177e-07
8.6924748e-07
8.9070587e-07
9.8002007e-07
1.1456524e-06
1.4153513e-06
1.83046e-06
2.4357279e-06
3.0177248e-06
3.6716597e-06
4.4813784e-06
5.419625e-06
6.4517445e-06
7.5814323e-06
8.7729098e-06
9.84178e-06
1.0622211e-05
1.0845919e-05
1.1252902e-05
1.4213754e-05
2.1727381e-05
2.6306963e-05
3.1758411e-05
3.6633082e-05
4.1652083e-05
4.6543549e-05
5.1453736e-05
5.631511e-05
6.1130217e-05
6.5863905e-05
7.0482145e-05
7.4953376e-05
7.9243252e-05
8.3322475e-05
8.7164923e-05
9.0752897e-05
9.4066152e-05
9.7085547e-05
9.9798897e-05
0.0001021925
0.00010427596
0.00010601195
0.00010744557
0.00010856519
0.00010938603
0.00010993225
0.00011017681
0.0001101455
0.00010986304
0.00010942412
0.0001088365
0.0001079826
0.00010698693
0.00010584153
0.00010456424
0.00010317524
0.00010168207
0.00010009395
9.8416356e-05
9.6657906e-05
9.4830597e-05
9.2946731e-05
9.101871e-05
8.9052839e-05
8.7051029e-05
8.5010389e-05
8.2928387e-05
8.0809061e-05
7.8651755e-05
7.6457208e-05
7.4225144e-05
7.1924868e-05
6.9589377e-05
6.7188149e-05
6.4708638e-05
6.2136567e-05
5.942288e-05
5.6539436e-05
5.3395189e-05
4.9952111e-05
4.6010306e-05
4.1571257e-05
3.4958142e-05
3.1609826e-05
3.3510525e-05
3.6436047e-05
3.9652281e-05
4.3141534e-05
4.6759946e-05
5.1113264e-05
5.6511263e-05
6.2499924e-05
6.8603733e-05
7.4639452e-05
8.0876297e-05
8.4920068e-05
8.7761941e-05
9.0976572e-05
9.5295646e-05
0.00010096444
0.00010884679
0.00013051787
0.00016004275
0.00020551172
0.0002810477
0.00038871886
0.00047759085
0.0004793039
0.00036674235
0.00023698341
0.000218437
0.00059884763
0.00058431247
0.0003856467
0.00010521735
1.3523786e-05
1.6724271e-06
3.4300421e-06
2.8445612e-06
2.4559336e-06
2.204326e-06
2.0363683e-06
2.085544e-06
2.294328e-06
2.6846063e-06
3.3210514e-06
4.2979234e-06
5.7240122e-06
7.0944862e-06
8.6321798e-06
1.053637e-05
1.2744526e-05
1.5174763e-05
1.7834395e-05
2.0639569e-05
2.3159361e-05
2.5001222e-05
2.5548052e-05
2.6542989e-05
3.3523653e-05
5.1132428e-05
6.1838948e-05
7.4582974e-05
8.5965593e-05
9.7677982e-05
0.00010908476
0.00012052796
0.0001318508
0.00014305991
0.00015407457
0.00016481689
0.00017521501
0.0001851905
0.00019467672
0.00020361412
0.00021196276
0.00021967664
0.00022671177
0.00023304027
0.00023863035
0.00024350449
0.00024757546
0.00025094751
0.0002535933
0.00025554639
0.00025686268
0.00025748462
0.00025745821
0.00025684913
0.00025587455
0.00025455352
0.00025261062
0.00025033455
0.00024770696
0.00024476894
0.00024156712
0.00023811902
0.00023444598
0.00023056075
0.00022648338
0.00022224184
0.00021786486
0.00021338143
0.00020880639
0.00020414439
0.00019938883
0.00019453401
0.00018958939
0.00018455362
0.00017942851
0.00017421366
0.0001688374
0.00016337703
0.0001577613
0.00015196092
0.0001459425
0.0001395914
0.00013284167
0.00012548027
0.00011741762
0.00010818572
9.7788022e-05
8.2302368e-05
7.4463809e-05
7.8921938e-05
8.5794848e-05
9.3358057e-05
0.00010156578
0.00011008392
0.00012032866
0.00013300801
0.00014705249
0.00016135059
0.00017547783
0.00019004172
0.00019947025
0.00020612168
0.00021365858
0.00022377355
0.00023702776
0.00025554389
0.00030584267
0.00037432103
0.00047889694
0.00065071737
0.00089076335
0.001079423
0.0010841099
0.0008454876
0.00055347358
0.00051217079
0.001199534
0.0011732986
0.00078681525
0.00021994556
2.8773053e-05
3.483195e-06
7.0206738e-06
5.8575408e-06
5.0615409e-06
4.5441257e-06
4.1972926e-06
4.2957563e-06
4.7239638e-06
5.5295679e-06
6.8466573e-06
8.8579994e-06
1.1807285e-05
1.4638494e-05
1.7808279e-05
2.1732562e-05
2.6285636e-05
3.1298234e-05
3.6782145e-05
4.2564134e-05
4.7765468e-05
5.1573303e-05
5.2763608e-05
5.4923996e-05
6.9343831e-05
0.00010534686
0.00012713349
0.00015304021
0.00017612276
0.00019983599
0.00022289263
0.00024598876
0.00026881143
0.00029137785
0.00031353073
0.00033511911
0.00035600499
0.00037603708
0.00039508766
0.00041304205
0.00042982493
0.00044534786
0.00045952585
0.00047230498
0.00048362208
0.00049352247
0.0005018307
0.00050875288
0.00051423318
0.00051833339
0.00052115989
0.00052262377
0.00052276101
0.00052173472
0.00051996867
0.00051750423
0.00051378232
0.00050937828
0.00050425578
0.0004984955
0.0004921898
0.00048537357
0.00047808914
0.00047036206
0.00046223242
0.0004537566
0.00044499254
0.00043599909
0.00042680655
0.00041742505
0.00040784185
0.00039804604
0.00038805696
0.00037787249
0.00036749663
0.00035692931
0.00034602579
0.00033494281
0.00032353649
0.00031174725
0.00029950706
0.00028658309
0.0002728402
0.00025784433
0.0002414098
0.00022258098
0.00020135962
0.00016973825
0.0001537048
0.00016279308
0.00017687781
0.00019240574
0.00020926632
0.0002267873
0.00024784468
0.00027384194
0.00030258029
0.00033178997
0.00036060914
0.00039022086
0.00040935755
0.00042290708
0.0004382711
0.00045884792
0.00048573419
0.00052345939
0.00062416259
0.0007611468
0.00096705053
0.001298844
0.0017473656
0.002079248
0.0020867666
0.0016640807
0.0011137419
0.0010394222
0.002125231
0.0020858896
0.0014372261
0.00041844126
5.6342392e-05
6.6454252e-06
1.310267e-05
1.1015549e-05
9.529692e-06
8.5584007e-06
7.9045578e-06
8.0842681e-06
8.885534e-06
1.0400842e-05
1.2887854e-05
1.6656537e-05
2.2213081e-05
2.7547917e-05
3.3496711e-05
4.085612e-05
4.9395755e-05
5.8796609e-05
6.9072421e-05
7.9895148e-05
8.9644833e-05
9.6796912e-05
9.9191145e-05
0.00010350094
0.0001305296
0.00019690295
0.00023671601
0.00028393075
0.00032580341
0.00036867994
0.00041023633
0.00045174497
0.00049265731
0.00053301895
0.00057256616
0.00061104818
0.00064823944
0.00068389027
0.0007177922
0.00074975565
0.00077966512
0.00080737204
0.00083273669
0.0008556699
0.0008760627
0.00089399497
0.0009091587
0.00092190893
0.00093214554
0.00093996641
0.00094553274
0.00094877403
0.00094960103
0.00094837445
0.00094582092
0.00094201992
0.00093596485
0.00092866206
0.00092004813
0.00091026064
0.00089945928
0.00088770445
0.00087506926
0.00086159829
0.0008473618
0.00083245966
0.00081699514
0.00080107379
0.00078475077
0.00076804578
0.00075093742
0.00073340757
0.00071549133
0.00069718632
0.00067850042
0.00065943471
0.0006397312
0.00061966961
0.000598993
0.00057759221
0.0005553423
0.00053181974
0.00050677421
0.00047941109
0.0004493783
0.00041491779
0.00037600374
0.00031789353
0.00028828329
0.00030489266
0.00033091073
0.00035969192
0.00039097769
0.00042356841
0.00046268479
0.00051080851
0.00056385497
0.00061763592
0.00067056205
0.00072467168
0.00075956977
0.00078437225
0.00081247424
0.00084997383
0.00089874323
0.00096741601
0.0011460734
0.0013888664
0.001744255
0.0022999934
0.0030170177
0.0035099204
0.0035140356
0.0028696886
0.0019807501
0.0018708448
0.0033659046
0.0033170038
0.0023788859
0.0007373016
0.00010397094
1.1876243e-05
2.280252e-05
1.9357885e-05
1.6775619e-05
1.5073383e-05
1.3923009e-05
1.4229429e-05
1.5630059e-05
1.8293786e-05
2.2674809e-05
2.9260366e-05
3.9008641e-05
4.8393774e-05
5.8784505e-05
7.1619057e-05
8.6501369e-05
0.00010286766
0.00012072016
0.00013947578
0.00015638356
0.00016881302
0.00017332399
0.00018133152
0.00022812221
0.00034006631
0.000406253
0.00048433586
0.0005530643
0.00062305722
0.00069054765
0.00075765279
0.00082352991
0.00088829158
0.00095156061
0.0010129821
0.0010722443
0.0011289951
0.0011829452
0.001233826
0.0012814984
0.0013257397
0.001366354
0.0014032155
0.0014361616
0.0014653125
0.0014902038
0.0015113668
0.0015286483
0.0015421821
0.0015521691
0.0015586522
0.0015612631
0.0015606142
0.0015578572
0.0015531195
0.0015447891
0.0015344169
0.0015219064
0.0015074617
0.0014913245
0.0014735856
0.0014543549
0.0014336997
0.0014117269
0.001388592
0.0013644565
0.0013394874
0.0013137733
0.001287347
0.0012601761
0.0012322337
0.0012035752
0.0011741982
0.0011441157
0.0011133286
0.0010814337
0.0010488625
0.0010152117
0.00098029685
0.00094390812
0.00090534895
0.00086419353
0.00081912065
0.00076950766
0.00071240492
0.00064766597
0.00055050648
0.00050051261
0.0005280194
0.00057191939
0.00062076868
0.00067400498
0.00072969976
0.00079640633
0.00087805646
0.00096768729
0.0010582232
0.0011469622
0.0012370176
0.0012950407
0.0013365115
0.0013833667
0.0014454904
0.0015257024
0.0016388433
0.0019222642
0.0023077143
0.0028502206
0.0036658119
0.0046621434
0.0052966098
0.0052848167
0.0044139412
0.0031552665
0.0030140037
0.0048150755
0.0047640326
0.0035908206
0.0012116013
0.00018335224
2.0200403e-05
3.7534015e-05
3.2261174e-05
2.802797e-05
2.520285e-05
2.3287216e-05
2.3782874e-05
2.6104287e-05
3.0554729e-05
3.7849255e-05
4.8748888e-05
6.4877977e-05
8.0515696e-05
9.7622254e-05
0.00011868842
0.00014306022
0.00016978238
0.00019880423
0.00022913967
0.00025645242
0.00027655868
0.00028450681
0.00029840048
0.00037377619
0.00054709876
0.00064754198
0.00076509479
0.00086754033
0.00097110793
0.0010703233
0.0011684028
0.001264215
0.001358001
0.0014493018
0.001537688
0.0016227931
0.0017041865
0.0017815208
0.0018544708
0.0019228942
0.0019864927
0.0020450258
0.0020983393
0.002146223
0.0021888229
0.0022255526
0.0022570993
0.0022832699
0.0023042281
0.0023201968
0.0023313769
0.0023371697
0.0023382
0.0023362745
0.0023315504
0.0023217262
0.0023089232
0.0022930165
0.0022742744
0.0022530195
0.0022293733
0.0022034803
0.0021754294
0.0021453636
0.0021134942
0.0020800437
0.0020452426
0.0020092166
0.0019720093
0.0019335763
0.0018938789
0.0018529913
0.0018109093
0.0017676482
0.0017231993
0.0016770237
0.0016296708
0.0015805974
0.0015295128
0.001476094
0.001419306
0.0013584836
0.0012916362
0.0012177395
0.0011322869
0.0010347958
0.00088727026
0.0008101111
0.00085129756
0.00091901021
0.00099510958
0.0010784849
0.0011663136
0.0012712144
0.0013987147
0.0015379002
0.0016778273
0.0018142607
0.0019513615
0.0020399863
0.0021040274
0.0021759637
0.0022703109
0.0023908621
0.0025606443
0.0029637416
0.0035159096
0.0042544292
0.0053184722
0.0065534208
0.007293236
0.0072556595
0.0061769151
0.0045652029
0.0043869853
0.0063245148
0.0062783117
0.0049873829
0.0018614342
0.00031104614
3.3095683e-05
5.8973111e-05
5.1483462e-05
4.4887494e-05
4.0407117e-05
3.7360943e-05
3.8128727e-05
4.1810723e-05
4.8952001e-05
6.0530809e-05
7.7766309e-05
0.00010311792
0.00012799809
0.0001547071
0.00018742194
0.00022508512
0.00026612097
0.00031033174
0.00035612846
0.00039717823
0.00042739477
0.00044039595
0.00046289409
0.00057626574
0.00082239252
0.00096194763
0.0011236621
0.0012631912
0.0014031657
0.0015364214
0.0016674093
0.0017947798
0.0019189536
0.0020394383
0.00215577
0.0022675637
0.0023743416
0.0024757191
0.0025713626
0.0026611035
0.0027445888
0.0028215492
0.0028918148
0.0029551472
0.0030116787
0.0030608005
0.0031032864
0.0031389424
0.0031679568
0.003190585
0.0032070952
0.0032169717
0.0032204525
0.0032201322
0.0032162605
0.0032058356
0.0031914915
0.0031730925
0.0031509611
0.0031254899
0.0030968284
0.003065151
0.0030305649
0.0029932428
0.0029534443
0.0029114437
0.0028675263
0.0028218513
0.0027744667
0.0027253159
0.0026743473
0.0026216456
0.0025672013
0.0025110261
0.0024530833
0.0023927676
0.0023306308
0.0022660556
0.0021986185
0.0021278661
0.0020524089
0.0019713041
0.0018818448
0.0017824977
0.0016670325
0.0015343338
0.001331588
0.0012230888
0.0012784846
0.0013737
0.0014824335
0.0016025905
0.001730439
0.0018826575
0.0020660813
0.0022650385
0.0024640815
0.0026571177
0.0028489066
0.0029743454
0.003066781
0.0031695718
0.0033022103
0.0034693655
0.0037033471
0.0042215858
0.0049442292
0.0058571569
0.0071235742
0.0085387883
0.009359987
0.0093016931
0.008040331
0.006110491
0.0058618967
0.0077797392
0.0077414668
0.0064595613
0.0026820385
0.00050788652
5.274187e-05
8.8960832e-05
7.9165529e-05
6.9361383e-05
6.2534451e-05
5.7883889e-05
5.9027802e-05
6.4664631e-05
7.5694325e-05
9.3334475e-05
0.00011946803
0.00015744248
0.0001953822
0.00023498516
0.00028306892
0.0003379466
0.00039709029
0.00046000433
0.00052428954
0.00058146065
0.00062351632
0.00064324588
0.0006773041
0.00083737863
0.001158548
0.00133788
0.0015434861
0.0017196711
0.0018952852
0.0020617305
0.0022246216
0.0023824647
0.0025358559
0.0026842936
0.0028272981
0.0029644825
0.003095339
0.0032194577
0.0033365359
0.0034463302
0.0035484737
0.0036426825
0.0037287866
0.0038065429
0.0038760319
0.0039367305
0.0039894238
0.0040339619
0.0040705543
0.0040994978
0.004121079
0.0041349965
0.0041410972
0.004142465
0.0041397085
0.0041291195
0.0041137584
0.0040934987
0.0040687091
0.0040398381
0.004007063
0.0039705834
0.003930524
0.0038870819
0.0038405554
0.0037912606
0.0037395252
0.0036855373
0.0036293446
0.0035708807
0.0035100832
0.0034470394
0.0033817336
0.0033141709
0.0032442718
0.0031714523
0.0030961436
0.0030177411
0.0029356829
0.002849384
0.0027571436
0.0026577522
0.0025478637
0.002425418
0.0022825975
0.0021174618
0.0018632773
0.0017234835
0.0017905105
0.0019131763
0.002056395
0.0022165249
0.0023890135
0.0025937528
0.0028382389
0.0031018237
0.0033644911
0.0036181632
0.0038672833
0.0040338684
0.0041601191
0.0042983955
0.0044732493
0.0046900983
0.0049903356
0.0056061936
0.0064829007
0.0075374959
0.0089557926
0.010505425
0.011403113
0.011345244
0.0099325664
0.007716962
0.0073359213
0.0091304541
0.0090968965
0.0079179698
0.003647001
0.00079522268
8.2470335e-05
0.00012930998
0.00011774514
0.00010383618
9.3812176e-05
8.6976035e-05
8.8613742e-05
9.6998668e-05
0.00011337413
0.0001392524
0.00017728299
0.00023148487
0.00028689631
0.0003426105
0.00040932089
0.00048446183
0.00056418782
0.00064757022
0.0007313234
0.00080511849
0.00085952337
0.00088769904
0.0009360895
0.0011507026
0.0015391888
0.0017562472
0.0020022736
0.0022126686
0.0024213805
0.0026187244
0.0028112385
0.002997327
0.0031777135
0.0033518887
0.0035193605
0.0036797453
0.0038325178
0.0039772615
0.0041136968
0.0042415044
0.0043603372
0.004469911
0.0045700683
0.0046605778
0.0047414624
0.004812332
0.0048739481
0.0049262316
0.0049694107
0.0050038274
0.0050297734
0.005047169
0.0050555654
0.0050583312
0.0050564962
0.0050457526
0.0050294872
0.0050075993
0.004980497
0.0049486742
0.0049123358
0.0048717041
0.0048269214
0.0047782063
0.0047258888
0.0046703192
0.0046118587
0.0045507195
0.0044869502
0.0044204766
0.0043512309
0.0042792981
0.004204659
0.0041273125
0.0040471397
0.0039636154
0.0038770177
0.0037867965
0.0036922636
0.0035927179
0.0034862203
0.0033713394
0.003244235
0.0031023864
0.0029367258
0.0027444944
0.0024477688
0.0022797518
0.0023537845
0.002500832
0.002677165
0.0028770004
0.003095046
0.0033531668
0.0036588402
0.003986788
0.004312795
0.0046268307
0.0049317945
0.0051420415
0.0053067317
0.0054835904
0.005702563
0.0059697368
0.0063343901
0.0070277068
0.0080335046
0.0092024937
0.010735354
0.012391449
0.013369559
0.013338636
0.011819019
0.0093524166
0.0087639433
0.01039555
0.010339456
0.0093080913
0.0047220644
0.0011876287
0.00012761193
0.00018152366
0.00016972872
0.00015093434
0.00013673553
0.00012705077
0.00012928685
0.00014146022
0.00016474425
0.00020132716
0.00025437428
0.00032806974
0.00040506592
0.00047948784
0.00056660325
0.00066309283
0.00076359007
0.00086676134
0.00096862615
0.0010577408
0.0011241119
0.0011628638
0.0012278719
0.0015048236
0.0019466992
0.0021990813
0.0024812827
0.0027231665
0.0029621986
0.0031879694
0.0034076642
0.0036196181
0.0038246361
0.0040222037
0.0042118241
0.0043931247
0.0045655746
0.0047287766
0.0048824405
0.0050262098
0.0051597726
0.0052828539
0.0053953169
0.0054969472
0.0055877282
0.005667393
0.0057366801
0.0057955893
0.0058443633
0.00588339
0.0059129699
0.0059331911
0.0059434205
0.0059472236
0.0059459672
0.0059349014
0.005917648
0.0058941427
0.005864829
0.0058302376
0.0057906012
0.0057461633
0.0056970838
0.0056436013
0.0055860726
0.0055248774
0.0054604043
0.0053928875
0.0053223771
0.0052487948
0.0051720713
0.0050922877
0.0050094241
0.004923476
0.0048342964
0.0047414205
0.0046450008
0.0045445433
0.0044392483
0.0043283221
0.0042096557
0.0040816453
0.0039400987
0.0037821267
0.0035977667
0.003383558
0.0030535039
0.0028609828
0.0029371971
0.0031044369
0.0033108727
0.0035480753
0.0038100294
0.0041194363
0.0044832642
0.0048722341
0.0052584438
0.0056299959
0.0059870299
0.0062418366
0.0064482393
0.0066652636
0.0069286021
0.0072451709
0.0076705333
0.0084249434
0.0095350152
0.010801416
0.012425551
0.014171899
0.015234521
0.015250632
0.013676696
0.011009744
0.010130693
0.011598349
0.011492918
0.010605222
0.005878492
0.0016849533
0.0001971147
0.00024652095
0.00023727858
0.00021319525
0.00019379257
0.00018057582
0.00018343967
0.00020065416
0.00023235173
0.00028206552
0.00035281777
0.00044812055
0.00054943876
0.00064409243
0.00075119983
0.00086774168
0.00098695859
0.0011073596
0.0012246508
0.001327118
0.0014051195
0.0014573732
0.001542984
0.0018859161
0.0023680442
0.0026540708
0.0029686645
0.00323968
0.0035065591
0.0037585224
0.0040031771
0.0042388271
0.0044663331
0.0046851843
0.0048948903
0.0050950977
0.0052852817
0.0054650746
0.0056341582
0.005792173
0.0059388447
0.0060739127
0.0061972624
0.0063086975
0.0064081779
0.0064955366
0.0065714969
0.0066361379
0.0066897126
0.0067326527
0.0067652756
0.0067877746
0.0067994235
0.0068039596
0.0068029579
0.0067913812
0.0067730106
0.006747825
0.0067163005
0.0066789987
0.0066361802
0.0065881086
0.0065349619
0.0064769966
0.0064145937
0.0063481587
0.0062781044
0.0062046842
0.0061279522
0.0060478283
0.0059642441
0.0058772764
0.0057869075
0.0056931315
0.0055957838
0.0054944567
0.0053892137
0.0052795977
0.0051647158
0.0050437023
0.0049143297
0.0047748623
0.0046208659
0.0044491623
0.0042491776
0.0040168678
0.0036608268
0.0034468409
0.0035212899
0.00370471
0.0039378788
0.00420937
0.0045124071
0.0048696832
0.0052873658
0.0057328309
0.0061749679
0.0066000648
0.0070046084
0.0073036335
0.0075533237
0.0078111332
0.0081178836
0.0084820279
0.0089638029
0.0097677858
0.010960587
0.012315816
0.01401714
0.015843712
0.016992079
0.017065354
0.01548447
0.012683083
0.011469669
0.012766502
0.012592057
0.011804375
0.0070989083
0.0022697565
0.00030635637
0.00032461144
0.00032164339
0.00029256269
0.00026699409
0.00024964581
0.00025305528
0.00027659334
0.0003178971
0.0003826985
0.00047277822
0.00059001327
0.00071599974
0.00083154402
0.00095620002
0.0010897689
0.0012245113
0.0013590806
0.0014892082
0.0016035695
0.001693662
0.0017630556
0.0018743023
0.0022835555
0.002795717
0.0031142895
0.0034581799
0.00375636
0.0040489875
0.0043252291
0.0045929496
0.0048504592
0.0050986602
0.0053370537
0.0055651653
0.0057826644
0.0059890418
0.0061839507
0.0063670504
0.0065379949
0.0066965436
0.0068424516
0.0069756256
0.0070958866
0.0072031813
0.0072974202
0.0073793192
0.0074490336
0.0075068236
0.0075531622
0.0075883876
0.0076127598
0.0076255042
0.0076305473
0.0076295404
0.007617295
0.0075976892
0.0075707504
0.0075369852
0.0074969824
0.0074510305
0.0073994126
0.0073423245
0.00728004
0.0072129615
0.0071415185
0.0070661453
0.0069871134
0.0069044822
0.0068181718
0.0067281162
0.0066343883
0.006536974
0.0064358681
0.0063308971
0.0062217102
0.0061083101
0.00599025
0.0058665646
0.0057363311
0.0055972417
0.0054474573
0.0052823821
0.0050986079
0.0048851548
0.0046374782
0.0042608436
0.0040275494
0.0040973532
0.0042935433
0.0045502952
0.004852984
0.0051940068
0.005595467
0.0060625618
0.0065598849
0.0070535095
0.0075278941
0.0079754968
0.0083176405
0.0086106844
0.008909374
0.009257998
0.0096674952
0.010201416
0.011047789
0.012303982
0.013745595
0.015515008
0.017414907
0.018646876
0.018780615
0.017225898
0.014358217
0.012816335
0.013922709
0.01367077
0.012912018
0.0083754605
0.0029216304
0.00047999082
0.00041612703
0.00042259663
0.00038977666
0.00035728603
0.00033542763
0.00033921961
0.00037002401
0.00042164407
0.00050261324
0.00061219412
0.00074994489
0.0008981476
0.0010349788
0.0011738488
0.0013209076
0.0014681014
0.0016143941
0.0017557017
0.0018814659
0.0019850904
0.0020755778
0.0022178464
0.0026911207
0.003226132
0.0035763206
0.0039470245
0.0042707321
0.0045873726
0.0048863157
0.0051755592
0.0054534514
0.0057209245
0.0059774965
0.0062227135
0.0064562678
0.0066776699
0.006886583
0.0070826551
0.0072655585
0.0074350809
0.0075909928
0.0077332196
0.0078615995
0.0079760722
0.0080766062
0.0081639163
0.0082382314
0.0082998164
0.0083491831
0.0083866925
0.0084126461
0.0084262454
0.0084316337
0.0084304228
0.0084173874
0.0083964511
0.0083676946
0.0083316536
0.0082889413
0.0082398741
0.0081847545
0.0081237964
0.0080572898
0.007985657
0.0079093496
0.0078288217
0.0077443622
0.0076560372
0.0075637684
0.0074674932
0.007367281
0.0072631224
0.0071550149
0.0070427832
0.0069261416
0.0068050375
0.0066790185
0.006547065
0.0064082079
0.0062600869
0.0061007813
0.0059255921
0.0057309252
0.0055055431
0.0052444451
0.0048512131
0.0046000826
0.0046632498
0.0048693959
0.0051469545
0.0054780194
0.0058540844
0.0062962634
0.0068086689
0.0073535565
0.0078944874
0.0084140082
0.0089007799
0.0092845889
0.0096200308
0.0099592297
0.010348258
0.010800813
0.01138293
0.012267735
0.013569139
0.015099082
0.016929803
0.018897748
0.020209067
0.020401845
0.018892197
0.016015583
0.014191743
0.015084983
0.014755329
0.013940619
0.009706192
0.0036347339
0.00073617164
0.0005211948
0.00053795333
0.00050383158
0.00046419362
0.00043770252
0.00044169705
0.00048006044
0.00054222043
0.00063937107
0.00076730818
0.00092332426
0.0010891819
0.0012469239
0.0013977041
0.0015551591
0.0017125397
0.0018691222
0.0020210107
0.0021585924
0.0022779065
0.0023932735
0.0025719245
0.0031047496
0.0036579118
0.0040387419
0.0044343046
0.0047822062
0.0051214648
0.0054418589
0.0057514133
0.0060485433
0.0063341974
0.0066079132
0.006869258
0.0071179449
0.0073535045
0.0075756027
0.0077838852
0.0079780429
0.0081578854
0.0083231987
0.0084739238
0.0086099162
0.0087311128
0.0088375241
0.0089298685
0.0090084461
0.0090735251
0.0091256543
0.0091652184
0.0091925422
0.0092068199
0.0092124374
0.0092108705
0.0091969529
0.0091746108
0.0091439825
0.0091056314
0.0090601936
0.0090080137
0.0089494136
0.0088846251
0.0088139542
0.0087378415
0.0086567596
0.0085711814
0.0084814124
0.0083875267
0.0082894489
0.0081871205
0.0080806078
0.0079699074
0.0078550205
0.0077357807
0.0076119744
0.0074834851
0.00734985
0.007210009
0.007062956
0.0069062999
0.006738055
0.0065534633
0.0063487795
0.0061126218
0.0058395487
0.0054328248
0.0051648561
0.0052200632
0.0054338306
0.0057297823
0.0060867343
0.0064951984
0.0069750117
0.0075291071
0.0081177356
0.0087021769
0.0092629306
0.0097857376
0.010209614
0.010585932
0.010964894
0.011393163
0.011886684
0.012513471
0.013434993
0.014770186
0.016381636
0.018273508
0.020305073
0.02169031
0.021937926
0.020481592
0.017636833
0.015595303
0.016260094
0.01586168
0.01490543
0.011090056
0.0044124493
0.0010895254
0.00064093218
0.00066387541
0.00063201944
0.00058580241
0.00055482093
0.00055891183
0.00060441087
0.00067701416
0.00078944401
0.00093379475