/*--------------------------------*- C++ -*----------------------------------*\
| =========                 |                                                 |
| \\      /  F ield         | OpenFOAM: The Open Source CFD Toolbox           |
|  \\    /   O peration     | Version:  2.4.0                                 |
|   \\  /    A nd           | Web:      www.OpenFOAM.org                      |
|    \\/     M anipulation  |                                                 |
\*---------------------------------------------------------------------------*/
FoamFile
{
    version     2.0;
    format      ascii;
    class       volScalarField;
    location    "5000";
    object      nut;
}
// * * * * * * * * * * * * * * * * * * * * * * * * * * * * * * * * * * * * * //

dimensions      [0 2 -1 0 0 0 0];

internalField   nonuniform List<scalar> 
15600
(
1.0853125e-10
8.2454203e-11
9.6758911e-11
2.0182934e-12
1.7260886e-11
1.9660479e-11
6.7314379e-12
4.5433028e-12
2.9335047e-12
2.4311152e-12
1.827625e-12
1.7035363e-12
1.743125e-12
1.9944916e-12
2.5014919e-12
3.3178999e-12
4.2903082e-12
5.2907776e-12
6.3090819e-12
7.2093305e-12
7.7704062e-12
8.0482137e-12
8.1506091e-12
7.9884552e-12
7.1139485e-12
6.2601253e-12
4.485312e-12
5.6334433e-12
1.3867235e-11
2.3670553e-11
3.1938709e-11
4.0136888e-11
4.7444137e-11
5.4335968e-11
6.0656425e-11
6.6541067e-11
7.1913082e-11
7.6777512e-11
8.1066454e-11
8.4743275e-11
8.776376e-11
9.0109134e-11
9.1765782e-11
9.2742057e-11
9.3056196e-11
9.2714671e-11
9.1745358e-11
9.0190741e-11
8.8099843e-11
8.5529233e-11
8.2534401e-11
7.9184609e-11
7.5547347e-11
7.168623e-11
6.7665897e-11
6.3542069e-11
5.9368844e-11
5.5201414e-11
5.1089667e-11
4.7067616e-11
4.3157951e-11
3.9396751e-11
3.5802222e-11
3.2391979e-11
2.9177893e-11
2.6164913e-11
2.3357655e-11
2.0756007e-11
1.836027e-11
1.6167385e-11
1.4172557e-11
1.236863e-11
1.0745954e-11
9.294048e-12
8.0021518e-12
6.8598168e-12
5.8569223e-12
4.9815091e-12
4.2234985e-12
3.5706336e-12
3.0133236e-12
2.5410242e-12
2.1456617e-12
1.8156995e-12
1.5454052e-12
1.3230422e-12
1.1472421e-12
1.0064488e-12
9.0680202e-13
8.3518769e-13
8.1867429e-13
8.1445833e-13
1.1276843e-12
1.3177913e-12
1.223255e-12
1.0841218e-12
8.1947632e-13
5.7199884e-13
6.4838855e-13
1.1841777e-12
2.2561374e-12
4.0891742e-12
6.8525853e-12
1.0702726e-11
1.5226479e-11
1.9756556e-11
2.484812e-11
3.0606377e-11
3.8029446e-11
4.7538559e-11
6.5512779e-11
9.7438767e-11
1.5411962e-10
2.5757267e-10
4.6544267e-10
7.8680739e-10
9.0176799e-10
4.6191823e-10
1.9650241e-10
3.1468803e-11
3.8831643e-10
3.5779407e-10
2.6809806e-10
4.820009e-11
2.1760989e-11
1.9063277e-11
7.6815461e-12
5.3467561e-12
3.7049669e-12
3.174662e-12
2.6008045e-12
2.5712358e-12
2.7632302e-12
3.1986135e-12
3.9666783e-12
5.223818e-12
6.9470595e-12
8.8078965e-12
1.0940443e-11
1.3419038e-11
1.6107166e-11
1.9094261e-11
2.2487598e-11
2.6083865e-11
2.8976223e-11
3.118409e-11
3.0925281e-11
3.3169226e-11
4.7720847e-11
7.5206268e-11
9.3961329e-11
1.1485033e-10
1.3351736e-10
1.5219082e-10
1.700499e-10
1.8758156e-10
2.0454829e-10
2.2096069e-10
2.3667036e-10
2.5155869e-10
2.6550649e-10
2.7840967e-10
2.9018131e-10
3.0076182e-10
3.1012331e-10
3.1821928e-10
3.250236e-10
3.305419e-10
3.3478192e-10
3.3781697e-10
3.3960071e-10
3.4030744e-10
3.3996725e-10
3.3867469e-10
3.3654588e-10
3.3355885e-10
3.2983439e-10
3.2547736e-10
3.20773e-10
3.1576945e-10
3.1019026e-10
3.0438251e-10
2.9834174e-10
2.9212859e-10
2.8580482e-10
2.7939374e-10
2.729229e-10
2.6640591e-10
2.5986498e-10
2.5332778e-10
2.4682132e-10
2.403707e-10
2.3398348e-10
2.2765525e-10
2.2136929e-10
2.1510997e-10
2.0887877e-10
2.0266351e-10
1.964573e-10
1.9024854e-10
1.8395144e-10
1.7763994e-10
1.7122987e-10
1.6467946e-10
1.5794759e-10
1.5089995e-10
1.4346417e-10
1.3540005e-10
1.2661687e-10
1.1659896e-10
1.0537008e-10
8.8621895e-11
8.0488175e-11
8.4627506e-11
8.925954e-11
9.2605121e-11
9.4603366e-11
9.5212001e-11
9.607545e-11
9.8190829e-11
1.0137755e-10
1.0524479e-10
1.0986455e-10
1.1596793e-10
1.2010078e-10
1.2233598e-10
1.248635e-10
1.2852737e-10
1.3424704e-10
1.4286105e-10
1.7072478e-10
2.1809655e-10
3.0263812e-10
4.5912911e-10
7.5088403e-10
1.238954e-09
1.4022956e-09
8.1631234e-10
4.3908932e-10
2.7435615e-10
7.2614218e-09
7.0488731e-09
4.5659049e-09
1.1379925e-09
1.4833803e-10
3.1923246e-11
3.7194209e-11
2.9271193e-11
2.4821626e-11
2.3049971e-11
2.2340466e-11
2.4329449e-11
2.8276024e-11
3.4477655e-11
4.4130171e-11
5.9253228e-11
8.2048492e-11
1.0705829e-10
1.383178e-10
1.8041988e-10
2.3458561e-10
3.0187855e-10
3.8271029e-10
4.7393925e-10
5.6260246e-10
6.3415472e-10
6.6422919e-10
6.9532164e-10
8.8225024e-10
1.3530427e-09
1.6420544e-09
1.9846236e-09
2.2911158e-09
2.6062414e-09
2.9131448e-09
3.2209515e-09
3.5254361e-09
3.826759e-09
4.1226889e-09
4.4110825e-09
4.6899367e-09
4.9570963e-09
5.2107195e-09
5.4491816e-09
5.6714135e-09
5.8761314e-09
6.0621599e-09
6.2287681e-09
6.3751414e-09
6.5019097e-09
6.6068102e-09
6.6926847e-09
6.7588668e-09
6.8063779e-09
6.8367262e-09
6.8482316e-09
6.842736e-09
6.8216674e-09
6.790971e-09
6.7511279e-09
6.6949186e-09
6.6300817e-09
6.5561356e-09
6.4742011e-09
6.385543e-09
6.2906302e-09
6.1900406e-09
6.0841101e-09
5.9733745e-09
5.858573e-09
5.7404636e-09
5.6198066e-09
5.4969851e-09
5.3721057e-09
5.244981e-09
5.1154433e-09
4.9837361e-09
4.8498071e-09
4.7136945e-09
4.5753668e-09
4.4329235e-09
4.2883883e-09
4.1398699e-09
3.9865848e-09
3.8276461e-09
3.6600133e-09
3.4819477e-09
3.2878179e-09
3.0752852e-09
2.8320081e-09
2.5580463e-09
2.1491316e-09
1.9443864e-09
2.0422084e-09
2.1576207e-09
2.2424817e-09
2.2969496e-09
2.3171081e-09
2.3369079e-09
2.377765e-09
2.4336019e-09
2.4903515e-09
2.5464325e-09
2.6162953e-09
2.6242035e-09
2.586004e-09
2.5436806e-09
2.5154886e-09
2.5034408e-09
2.5199411e-09
2.8328135e-09
3.3357165e-09
4.2390835e-09
5.9381605e-09
8.7983961e-09
1.2605256e-08
1.3997877e-08
1.0439476e-08
6.6881867e-09
6.0539539e-09
6.5285454e-08
6.3533512e-08
4.0903106e-08
1.0394613e-08
1.2264623e-09
1.5409718e-10
2.8570281e-10
2.307991e-10
2.0194416e-10
1.8953018e-10
1.8720011e-10
2.057384e-10
2.4102891e-10
2.9674635e-10
3.8338895e-10
5.1774282e-10
7.2045699e-10
9.4231991e-10
1.2209044e-09
1.599181e-09
2.0899206e-09
2.7024232e-09
3.4397261e-09
4.2739761e-09
5.0898648e-09
5.7496181e-09
6.0360392e-09
6.3098197e-09
7.9592966e-09
1.2185048e-08
1.4763648e-08
1.7830108e-08
2.0572918e-08
2.3396444e-08
2.6148334e-08
2.8910896e-08
3.1646326e-08
3.4356173e-08
3.7020743e-08
3.9620906e-08
4.2138866e-08
4.4555258e-08
4.6853513e-08
4.9018861e-08
5.104133e-08
5.2909263e-08
5.4611934e-08
5.6142388e-08
5.7492829e-08
5.866857e-08
5.9648519e-08
6.0457997e-08
6.1090379e-08
6.155434e-08
6.1863283e-08
6.2001394e-08
6.1984631e-08
6.1825844e-08
6.1578709e-08
6.1247428e-08
6.0765913e-08
6.0204381e-08
5.9558328e-08
5.8837824e-08
5.8054307e-08
5.7212026e-08
5.6316218e-08
5.5369958e-08
5.4378137e-08
5.3347531e-08
5.2285108e-08
5.1197873e-08
5.0089408e-08
4.8960788e-08
4.7810393e-08
4.6636789e-08
4.5442281e-08
4.4226497e-08
4.2989871e-08
4.1732227e-08
4.0436288e-08
3.9120624e-08
3.7768047e-08
3.6371498e-08
3.4922947e-08
3.3394739e-08
3.1771046e-08
3.0000569e-08
2.8061974e-08
2.5842617e-08
2.3343247e-08
1.961397e-08
1.7747863e-08
1.8645301e-08
1.9702428e-08
2.0480892e-08
2.0982556e-08
2.1171096e-08
2.1354931e-08
2.1726509e-08
2.2228854e-08
2.2732926e-08
2.3224221e-08
2.3830932e-08
2.3866609e-08
2.3485679e-08
2.3066155e-08
2.2771848e-08
2.2614203e-08
2.2712686e-08
2.545297e-08
2.9822133e-08
3.7662843e-08
5.2373213e-08
7.6707888e-08
1.0601418e-07
1.1695463e-07
9.0922269e-08
5.9226625e-08
5.4842247e-08
3.4848295e-07
3.3951417e-07
2.1903411e-07
5.6318822e-08
6.6176039e-09
7.6716319e-10
1.5020574e-09
1.2206652e-09
1.0717528e-09
1.0069786e-09
9.9614282e-10
1.0951105e-09
1.2841893e-09
1.5864147e-09
2.0581081e-09
2.7863265e-09
3.8834205e-09
5.0819422e-09
6.5862639e-09
8.6307865e-09
1.1286593e-08
1.4603358e-08
1.8596896e-08
2.3118564e-08
2.7546157e-08
3.1128623e-08
3.2686631e-08
3.4142722e-08
4.3006207e-08
6.575436e-08
7.9606788e-08
9.6078357e-08
1.1079882e-07
1.2594689e-07
1.4070539e-07
1.5551824e-07
1.7018478e-07
1.8471526e-07
1.9900654e-07
2.1295794e-07
2.2647622e-07
2.3945916e-07
2.5181925e-07
2.6347804e-07
2.7438217e-07
2.8447002e-07
2.9368355e-07
3.0198466e-07
3.0933011e-07
3.1574744e-07
3.2112075e-07
3.2558444e-07
3.2910084e-07
3.3171369e-07
3.3349398e-07
3.3435765e-07
3.3438071e-07
3.3363629e-07
3.3241099e-07
3.3072769e-07
3.2822775e-07
3.2528884e-07
3.2188657e-07
3.1807478e-07
3.1391503e-07
3.0943028e-07
3.0464882e-07
2.9958742e-07
2.9427266e-07
2.8874145e-07
2.8303177e-07
2.7718197e-07
2.7121187e-07
2.6512774e-07
2.5892125e-07
2.5258506e-07
2.46132e-07
2.3956052e-07
2.3287332e-07
2.2606996e-07
2.190569e-07
2.1193546e-07
2.0461267e-07
1.9705065e-07
1.8920621e-07
1.8092987e-07
1.7213619e-07
1.6254755e-07
1.5204877e-07
1.4002955e-07
1.2649643e-07
1.0631092e-07
9.6225187e-08
1.0111629e-07
1.0686202e-07
1.110978e-07
1.1383299e-07
1.1487171e-07
1.1588748e-07
1.1790795e-07
1.2061706e-07
1.2331828e-07
1.2593764e-07
1.2915108e-07
1.2925787e-07
1.2713529e-07
1.2481727e-07
1.2317567e-07
1.2226334e-07
1.2278171e-07
1.3744691e-07
1.6069701e-07
2.0225367e-07
2.7964943e-07
4.0537056e-07
5.4599539e-07
5.9658104e-07
4.7338731e-07
3.1248012e-07
2.9311751e-07
1.3324956e-06
1.3014884e-06
8.4597702e-07
2.2172364e-07
2.6487505e-08
3.010187e-09
5.8680312e-09
4.7900633e-09
4.2090929e-09
3.9555908e-09
3.9124824e-09
4.2982265e-09
5.0399578e-09
6.2360221e-09
8.1078846e-09
1.0989246e-08
1.533123e-08
2.0068376e-08
2.6007504e-08
3.4081434e-08
4.4576432e-08
5.7685278e-08
7.3467939e-08
9.1346506e-08
1.088665e-07
1.2304231e-07
1.2917861e-07
1.3476718e-07
1.6943905e-07
2.5843984e-07
3.1243666e-07
3.7658279e-07
4.3380741e-07
4.9263564e-07
5.4990271e-07
6.0735104e-07
6.6421997e-07
7.2056569e-07
7.7600603e-07
8.3016711e-07
8.8270356e-07
9.3323165e-07
9.814223e-07
1.0269781e-06
1.0697017e-06
1.1093538e-06
1.1457036e-06
1.178597e-06
1.2078558e-06
1.2335806e-06
1.2553001e-06
1.2735256e-06
1.2880955e-06
1.2991595e-06
1.3069819e-06
1.311252e-06
1.312184e-06
1.3100972e-06
1.3060914e-06
1.3002584e-06
1.2911779e-06
1.2803206e-06
1.2675906e-06
1.2531954e-06
1.2373751e-06
1.2202199e-06
1.2018412e-06
1.1823059e-06
1.1617197e-06
1.14023e-06
1.117989e-06
1.0951509e-06
1.0717972e-06
1.0479563e-06
1.0235985e-06
9.9869798e-07
9.7330845e-07
9.4742684e-07
9.2106676e-07
8.9423057e-07
8.6654777e-07
8.3842615e-07
8.0949798e-07
7.7961638e-07
7.4861308e-07
7.1589909e-07
6.8113881e-07
6.4323609e-07
6.0173754e-07
5.5423153e-07
5.0075498e-07
4.2100864e-07
3.8121352e-07
4.0066262e-07
4.2346698e-07
4.402959e-07
4.5117711e-07
4.5534679e-07
4.5943294e-07
4.6742956e-07
4.7804645e-07
4.8853619e-07
4.9862253e-07
5.1088607e-07
5.1079194e-07
5.0201141e-07
4.9252309e-07
4.8568961e-07
4.8167444e-07
4.8349445e-07
5.4009739e-07
6.2920385e-07
7.8719705e-07
1.0778965e-06
1.5371283e-06
2.0116011e-06
2.1627674e-06
1.7418635e-06
1.1719654e-06
1.1194148e-06
3.9939946e-06
3.9213727e-06
2.5908329e-06
7.0079248e-07
8.6656259e-08
9.7295042e-09
1.8699841e-08
1.5343692e-08
1.3491386e-08
1.2681291e-08
1.2538058e-08
1.3760769e-08
1.6127162e-08
1.9966542e-08
2.5992204e-08
3.5223608e-08
4.9181609e-08
6.4385079e-08
8.3413991e-08
1.0928475e-07
1.4292891e-07
1.8494355e-07
2.3550476e-07
2.9278723e-07
3.4893194e-07
3.9428744e-07
4.1365495e-07
4.305435e-07
5.3964255e-07
8.1955609e-07
9.8826375e-07
1.1883081e-06
1.3662297e-06
1.5488235e-06
1.7263329e-06
1.9042671e-06
2.0803724e-06
2.2549011e-06
2.4267707e-06
2.5949085e-06
2.7583207e-06
2.9158831e-06
3.066626e-06
3.2096627e-06
3.3444275e-06
3.4701567e-06
3.5861146e-06
3.691792e-06
3.7865803e-06
3.8707651e-06
3.9427676e-06
4.0041268e-06
4.0542632e-06
4.0935448e-06
4.122698e-06
4.1409201e-06
4.1483787e-06
4.1462838e-06
4.1379664e-06
4.1237254e-06
4.0990225e-06
4.0684271e-06
4.0316382e-06
3.9892866e-06
3.9421215e-06
3.8904258e-06
3.8345503e-06
3.7747112e-06
3.7112479e-06
3.6446375e-06
3.575375e-06
3.5039667e-06
3.4306867e-06
3.3556454e-06
3.2787647e-06
3.1999796e-06
3.1194757e-06
3.0372606e-06
2.9533929e-06
2.8679038e-06
2.7795971e-06
2.6898281e-06
2.5974106e-06
2.5018928e-06
2.4027478e-06
2.2981017e-06
2.1868889e-06
2.0656069e-06
1.9328065e-06
1.7807627e-06
1.6096088e-06
1.3543176e-06
1.2270254e-06
1.2897198e-06
1.3631042e-06
1.4172964e-06
1.4523306e-06
1.4658426e-06
1.4790594e-06
1.504516e-06
1.5378978e-06
1.5703993e-06
1.6011726e-06
1.6381139e-06
1.63511e-06
1.6047537e-06
1.5723592e-06
1.548319e-06
1.5329514e-06
1.5367578e-06
1.7097679e-06
1.98e-06
2.4529787e-06
3.3088434e-06
4.6116128e-06
5.8402483e-06
6.1377056e-06
4.9760508e-06
3.421362e-06
3.3364648e-06
9.8076203e-06
9.7121416e-06
6.6059066e-06
1.8743287e-06
2.4537139e-07
2.7260676e-08
5.150677e-08
4.2538691e-08
3.7438541e-08
3.5202336e-08
3.4788767e-08
3.8135471e-08
4.4654523e-08
5.5276898e-08
7.2004289e-08
9.7455909e-08
1.3611595e-07
1.7819948e-07
2.3070984e-07
3.0208639e-07
3.9491559e-07
5.1073596e-07
6.4993534e-07
8.075045e-07
9.6173873e-07
1.0856928e-06
1.1370518e-06
1.1788557e-06
1.4708839e-06
2.2180116e-06
2.6637327e-06
3.1906405e-06
3.657247e-06
4.1348911e-06
4.5984031e-06
5.0625921e-06
5.5219064e-06
5.9773886e-06
6.4265393e-06
6.8668534e-06
7.2960028e-06
7.7112739e-06
8.1103038e-06
8.4909159e-06
8.8517681e-06
9.1907363e-06
9.5058519e-06
9.7956738e-06
1.005842e-05
1.0294779e-05
1.0500188e-05
1.0678532e-05
1.0828039e-05
1.0949363e-05
1.1043921e-05
1.1110508e-05
1.1147591e-05
1.1159064e-05
1.1153376e-05
1.1131356e-05
1.1080737e-05
1.1013375e-05
1.0928484e-05
1.0827644e-05
1.0712805e-05
1.0584702e-05
1.0444256e-05
1.029205e-05
1.0128997e-05
9.9563994e-06
9.775621e-06
9.5880732e-06
9.3945381e-06
9.1953859e-06
8.9904695e-06
8.7796592e-06
8.5635144e-06
8.3421153e-06
8.1156742e-06
7.8843727e-06
7.6448694e-06
7.4011064e-06
7.1497699e-06
6.8897037e-06
6.6195056e-06
6.3340969e-06
6.0305793e-06
5.6993881e-06
5.336515e-06
4.9207526e-06
4.4523377e-06
3.75265e-06
3.4036516e-06
3.5768798e-06
3.7793291e-06
3.9287807e-06
4.0251965e-06
4.0624409e-06
4.0985826e-06
4.1671762e-06
4.2557144e-06
4.3399592e-06
4.4176606e-06
4.5092633e-06
4.4898913e-06
4.3969213e-06
4.2991095e-06
4.2235221e-06
4.1703816e-06
4.1709816e-06
4.610442e-06
5.2933964e-06
6.4676515e-06
8.5528897e-06
1.1599299e-05
1.4205076e-05
1.4532395e-05
1.1718808e-05
8.2002849e-06
8.1170345e-06
2.0290496e-05
2.0320281e-05
1.4415021e-05
4.3632497e-06
6.2130958e-07
6.8615169e-08
1.2714039e-07
1.0587839e-07
9.33172e-08
8.7792599e-08
8.671889e-08
9.4921172e-08
1.1100462e-07
1.3731592e-07
1.7881569e-07
2.4152044e-07
3.3711464e-07
4.4132762e-07
5.7066711e-07
7.4634502e-07
9.7464307e-07
1.2588513e-06
1.5994272e-06
1.9838201e-06
2.3583585e-06
2.655843e-06
2.7720052e-06
2.8575285e-06
3.5449943e-06
5.2885671e-06
6.3149226e-06
7.5226931e-06
8.5866542e-06
9.6721273e-06
1.0723308e-05
1.1774791e-05
1.2815208e-05
1.3847696e-05
1.4867476e-05
1.5869578e-05
1.6849349e-05
1.7801158e-05
1.8720052e-05
1.9601528e-05
2.0442662e-05
2.1238293e-05
2.1983895e-05
2.2675968e-05
2.331005e-05
2.3887687e-05
2.4397469e-05
2.4847966e-05
2.5234633e-05
2.555826e-05
2.5820814e-05
2.6021935e-05
2.615406e-05
2.6226315e-05
2.625794e-05
2.6250845e-05
2.6176596e-05
2.606131e-05
2.5903313e-05
2.5705915e-05
2.5473414e-05
2.5207417e-05
2.4909953e-05
2.4582318e-05
2.4226582e-05
2.3845748e-05
2.3443004e-05
2.3021706e-05
2.2583691e-05
2.2130069e-05
2.1660543e-05
2.1174944e-05
2.0674684e-05
2.016008e-05
1.9631743e-05
1.9090367e-05
1.8527699e-05
1.7953868e-05
1.7360678e-05
1.6745589e-05
1.6105315e-05
1.5427839e-05
1.4706181e-05
1.3917437e-05
1.3051634e-05
1.2057519e-05
1.0934476e-05
9.2503417e-06
8.407915e-06
8.8293745e-06
9.3212077e-06
9.683504e-06
9.9163447e-06
1.0005804e-05
1.0091344e-05
1.0251532e-05
1.0454171e-05
1.0640529e-05
1.0805404e-05
1.0994925e-05
1.0912128e-05
1.0655277e-05
1.038921e-05
1.0174494e-05
1.0010371e-05
9.9792372e-06
1.0930045e-05
1.2415519e-05
1.4915905e-05
1.9282585e-05
2.5433692e-05
3.024742e-05
3.0128386e-05
2.3851286e-05
1.6799534e-05
1.6649626e-05
3.6386515e-05
3.6877953e-05
2.7506735e-05
8.9917311e-06
1.4307218e-06
1.5902839e-07
2.8795632e-07
2.4231636e-07
2.1400528e-07
2.0150569e-07
1.9893371e-07
2.1734829e-07
2.5371279e-07
3.1352226e-07
4.0757548e-07
5.4898121e-07
7.646756e-07
1.0009661e-06
1.2916648e-06
1.6858049e-06
2.1967916e-06
2.8300425e-06
3.5845285e-06
4.4304279e-06
5.2462401e-06
5.880025e-06
6.1022567e-06
6.245414e-06
7.701456e-06
1.1320494e-05
1.342091e-05
1.5876684e-05
1.8029063e-05
2.0215919e-05
2.2329669e-05
2.4440936e-05
2.6529757e-05
2.8603573e-05
3.0654358e-05
3.2673214e-05
3.4651753e-05
3.6579501e-05
3.8447186e-05
4.0246797e-05
4.1971841e-05
4.3611674e-05
4.5157289e-05
4.6601482e-05
4.7934899e-05
4.9160756e-05
5.0255014e-05
5.1234403e-05
5.2089484e-05
5.2820888e-05
5.3430698e-05
5.392126e-05
5.4275913e-05
5.4506074e-05
5.4653892e-05
5.4722928e-05
5.4656553e-05
5.4504016e-05
5.4262585e-05
5.3938168e-05
5.3538915e-05
5.3067808e-05
5.2528632e-05
5.1923788e-05
5.1257199e-05
5.0534699e-05
4.9762564e-05
4.8947488e-05
4.80931e-05
4.7201948e-05
4.6273411e-05
4.5307275e-05
4.4306458e-05
4.3271725e-05
4.2204402e-05
4.1106294e-05
3.9959774e-05
3.878692e-05
3.7570178e-05
3.6304517e-05
3.4983004e-05
3.3580631e-05
3.2082292e-05
3.0439613e-05
2.8629893e-05
2.6543365e-05
2.417335e-05
2.05928e-05
1.8788477e-05
1.9698136e-05
2.0758294e-05
2.1536151e-05
2.2033698e-05
2.2222985e-05
2.2400384e-05
2.272796e-05
2.3131966e-05
2.3486542e-05
2.3781451e-05
2.4109291e-05
2.3840871e-05
2.3206205e-05
2.2559837e-05
2.2017498e-05
2.1576762e-05
2.1432296e-05
2.3211713e-05
2.6066777e-05
3.0765102e-05
3.8883841e-05
5.0039646e-05
5.8248797e-05
5.6723829e-05
4.3730571e-05
3.0534459e-05
2.9798071e-05
5.84096e-05
5.9825424e-05
4.6961249e-05
1.6632727e-05
3.0160745e-06
3.4550554e-07
6.0804755e-07
5.1823803e-07
4.5894623e-07
4.3263688e-07
4.268344e-07
4.652454e-07
5.4170369e-07
6.6845524e-07
8.6600061e-07
1.1622732e-06
1.612682e-06
2.1104594e-06
2.7147478e-06
3.5311436e-06
4.5844285e-06
5.879146e-06
7.4063349e-06
9.0975422e-06
1.0698734e-05
1.1899096e-05
1.2247553e-05
1.2440957e-05
1.5269547e-05
2.2032066e-05
2.5917065e-05
3.0418601e-05
3.4350513e-05
3.8325594e-05
4.2161524e-05
4.5984915e-05
4.9764909e-05
5.3515383e-05
5.7223721e-05
6.0874745e-05
6.4454249e-05
6.7944321e-05
7.1329265e-05
7.4596411e-05
7.7731809e-05
8.0717308e-05
8.3537462e-05
8.6179905e-05
8.8628549e-05
9.088885e-05
9.2919479e-05
9.4748942e-05
9.6361557e-05
9.7757941e-05
9.8940793e-05
9.9914622e-05
0.00010065942
0.00010117616
0.00010154598
0.00010177792
0.00010177334
0.00010161301
0.00010129391
0.0001008253
0.00010022079
9.9485309e-05
9.862499e-05
9.7643676e-05
9.6547734e-05
9.5346867e-05
9.4051614e-05
9.2673387e-05
9.1218324e-05
8.9690767e-05
8.8089718e-05
8.6414598e-05
8.4670364e-05
8.2858279e-05
8.0980522e-05
7.9040186e-05
7.7006384e-05
7.4917343e-05
7.2742202e-05
7.047139e-05
6.809164e-05
6.5557117e-05
6.2838558e-05
5.9845967e-05
5.6532692e-05
5.2691078e-05
4.8293493e-05
4.1582999e-05
3.815732e-05
3.9895219e-05
4.1920918e-05
4.3401001e-05
4.4344349e-05
4.4701966e-05
4.5030567e-05
4.5624781e-05
4.6335303e-05
4.6924106e-05
4.7374833e-05
4.7857569e-05
4.7167879e-05
4.5787376e-05
4.4409797e-05
4.3216721e-05
4.2207917e-05
4.1798029e-05
4.4737488e-05
4.9706447e-05
5.7722788e-05
7.1503342e-05
9.0183089e-05
0.00010351179
9.9394142e-05
7.4608855e-05
5.1004374e-05
4.8248751e-05
8.6563294e-05
8.9368136e-05
7.3495106e-05
2.8035787e-05
5.8316421e-06
7.1273053e-07
1.210765e-06
1.0473945e-06
9.3077143e-07
8.7865199e-07
8.6610927e-07
9.4115547e-07
1.092307e-06
1.3445068e-06
1.7331449e-06
2.3149697e-06
3.1934766e-06
4.1765665e-06
5.3476261e-06
6.9198597e-06
8.9313587e-06
1.1371808e-05
1.4206038e-05
1.7283995e-05
2.011689e-05
2.2138247e-05
2.2553853e-05
2.2772113e-05
2.7907937e-05
3.9421127e-05
4.6032462e-05
5.3593955e-05
6.0191349e-05
6.6818571e-05
7.3201795e-05
7.9541941e-05
8.5796703e-05
9.1987111e-05
9.8094433e-05
0.00010409413
0.00010996401
0.00011567638
0.00012120775
0.0001265395
0.00013164636
0.00013650271
0.00014108586
0.00014537821
0.00014935715
0.0001530289
0.00015633664
0.00015932173
0.00016196329
0.00016426288
0.00016622523
0.00016785684
0.00016914116
0.0001700615
0.00017074144
0.00017121039
0.00017131309
0.0001711677
0.00017077304
0.00017014227
0.00016929599
0.00016824163
0.00016698824
0.00016554137
0.00016391024
0.00016210919
0.00016015389
0.00015806139
0.0001558413
0.00015349919
0.00015103392
0.00014844396
0.0001457365
0.00014291313
0.0001399767
0.00013693036
0.00013373097
0.00013042926
0.00012698193
0.00012337124
0.00011957427
0.0001155165
0.00011114741
0.00010631871
0.0001009454
9.4679989e-05
8.7447839e-05
7.6305287e-05
7.0516005e-05
7.346102e-05
7.6908607e-05
7.9422356e-05
8.1028007e-05
8.1648266e-05
8.2212255e-05
8.3195353e-05
8.4329641e-05
8.521565e-05
8.5833616e-05
8.648331e-05
8.5030627e-05
8.2396429e-05
7.9842705e-05
7.7574204e-05
7.5610539e-05
7.4748678e-05
7.9199709e-05
8.7132023e-05
9.9887005e-05
0.00012164711
0.00015088636
0.00017155975
0.00016398458
0.00012091875
8.0559176e-05
7.3056215e-05
0.00012156592
0.00012603362
0.00010781656
4.3789623e-05
1.0361374e-05
1.4083357e-06
2.2930589e-06
2.0162807e-06
1.7991221e-06
1.7009673e-06
1.6746259e-06
1.8124058e-06
2.0956111e-06
2.5680879e-06
3.2889574e-06
4.3669498e-06
5.9757333e-06
7.8045138e-06
9.9310896e-06
1.2756519e-05
1.63252e-05
2.0575215e-05
2.5406558e-05
3.0515342e-05
3.5044646e-05
3.8083189e-05
3.8389722e-05
3.8641625e-05
4.7497685e-05
6.5598461e-05
7.6119955e-05
8.7931727e-05
9.8241869e-05
0.00010850995
0.00011837131
0.00012811355
0.00013768726
0.00014712047
0.00015638866
0.00016545596
0.00017429194
0.00018285882
0.0001911262
0.00019906806
0.00020664755
0.00021383388
0.00022059806
0.000226919
0.00023276967
0.00023815459
0.00024300821
0.00024738377
0.00025125813
0.00025463526
0.00025752385
0.00025993304
0.00026185468
0.00026325169
0.00026429023
0.00026503276
0.0002652589
0.00026512615
0.00026463824
0.00026381256
0.00026267803
0.00026124522
0.00025952651
0.00025752942
0.00025526627
0.00025275664
0.00025002193
0.0002470855
0.00024396088
0.00024065505
0.00023716606
0.00023349099
0.00022963951
0.00022561311
0.00022141497
0.00021704671
0.0002124558
0.00020769916
0.00020272366
0.00019749935
0.00019199048
0.00018608739
0.00017971148
0.00017264232
0.00016474188
0.00015548761
0.00014472638
0.00012803755
0.00011918475
0.00012367315
0.00012898743
0.00013287356
0.00013538435
0.00013640567
0.00013733823
0.0001388755
0.00014058408
0.00014185798
0.00014268403
0.0001435606
0.00014098158
0.00013652784
0.00013235241
0.00012858498
0.00012528364
0.00012383735
0.00013024641
0.00014199062
0.00016121963
0.0001935137
0.00023651422
0.00026695801
0.00025580386
0.00018790615
0.00012255024
0.0001060703
0.0001655643
0.00017099051
0.00015094722
6.4456736e-05
1.7001531e-05
2.6791119e-06
4.1580065e-06
3.7178143e-06
3.3325597e-06
3.1549967e-06
3.1007635e-06
3.3381995e-06
3.8439922e-06
4.6776371e-06
5.9442458e-06
7.8367262e-06
1.0615977e-05
1.381821e-05
1.7456421e-05
2.2205696e-05
2.809991e-05
3.4957033e-05
4.2551009e-05
5.0329018e-05
5.6932006e-05
6.1061327e-05
6.1009424e-05
6.1452674e-05
7.6049326e-05
0.00010267885
0.00011851455
0.00013585886
0.00015100965
0.00016593835
0.00018021833
0.00019423015
0.00020793006
0.00022135401
0.00023447605
0.00024724969
0.00025963914
0.00027159883
0.00028309419
0.0002940913
0.00030454493
0.0003144226
0.00032369104
0.00033232825
0.00034030502
0.00034762368
0.00035421483
0.00036014397
0.00036538868
0.00036995661
0.00037386234
0.000377119
0.00037972819
0.00038163355
0.0003830449
0.00038406321
0.00038440152
0.0003842552
0.00038363656
0.00038256732
0.00038108589
0.00037920652
0.00037694534
0.00037431203
0.00037132228
0.00036800131
0.00036437678
0.0003604789
0.00035632558
0.00035192504
0.00034727416
0.00034236869
0.00033722012
0.00033182989
0.00032620115
0.00032033293
0.00031416476
0.00030775612
0.00030104472
0.00029398525
0.00028652638
0.00027851836
0.0002698485
0.00026021378
0.00024940968
0.00023671277
0.00022186033
0.00019876537
0.00018622589
0.00019250997
0.00020009998
0.00020570411
0.00020940174
0.00021103128
0.0002125426
0.00021487207
0.00021737344
0.00021919613
0.00022035444
0.00022160424
0.00021759064
0.00021083162
0.00020462374
0.00019903904
0.00019412208
0.00019209388
0.00020107495
0.00021736306
0.00024503473
0.00029041299
0.00035019392
0.0003927386
0.00037857675
0.00028066945
0.00018125637
0.00014940068
0.00022108641
0.00022607288
0.00020436252
9.0809299e-05
2.5983015e-05
4.9104072e-06
7.2577725e-06
6.5926225e-06
5.9379671e-06
5.625639e-06
5.5159371e-06
5.8979004e-06
6.7601438e-06
8.1492478e-06
1.0264058e-05
1.3420129e-05
1.7965631e-05
2.3244257e-05
2.9138589e-05
3.6627248e-05
4.5723966e-05
5.6028436e-05
6.711762e-05
7.8094619e-05
8.7009201e-05
9.2177803e-05
9.1587819e-05
9.2768746e-05
0.00011552182
0.00015268039
0.00017536252
0.0001994927
0.00022058521
0.00024112869
0.00026069191
0.00027975055
0.00029828683
0.00031634731
0.0003339121
0.00035092704
0.00036735577
0.00038314864
0.00039826963
0.00041267804
0.00042632437
0.00043917789
0.00045120287
0.00046237903
0.00047267655
0.00048209578
0.00049056666
0.00049816774
0.00050488001
0.00051071561
0.0005156967
0.0005198419
0.0005231614
0.00052558263
0.00052736214
0.0005286386
0.00052906178
0.00052886164
0.00052806276
0.00052669125
0.00052479603
0.00052239558
0.00051951011
0.00051615171
0.00051233961
0.00050810509
0.00050348254
0.00049850955
0.00049320883
0.00048758976
0.00048164778
0.00047537713
0.00046879085
0.00046189026
0.00045467808
0.00044715024
0.00043923926
0.00043100433
0.00042237383
0.00041328475
0.00040366752
0.00039332835
0.00038211505
0.00036963371
0.0003556007
0.0003390725
0.00031964835
0.00028946682
0.0002726525
0.00028090122
0.0002911533
0.00029884954
0.00030407312
0.00030660251
0.00030899445
0.0003124446
0.00031604719
0.00031867483
0.00032040453
0.00032224577
0.00031657959
0.00030723898
0.00029856151
0.00029099425
0.00028433136
0.00028188459
0.00029416178
0.00031564473
0.00035379822
0.00041464408
0.00049389569
0.00055065111
0.00053442349
0.00040326724
0.0002613831
0.00020615373
0.00029098974
0.0002936661
0.00026996675
0.00012414555
3.7201591e-05
8.6374717e-06
1.2242764e-05
1.1274298e-05
1.0204653e-05
9.6629629e-06
9.4460183e-06
1.0016434e-05
1.1416535e-05
1.3608445e-05
1.697999e-05
2.1986999e-05
2.9053809e-05
3.7252879e-05
4.6351286e-05
5.7476687e-05
7.0670349e-05
8.5204805e-05
0.00010040139
0.00011495123
0.00012631222
0.0001323731
0.00013132279
0.00013427773
0.0001677985
0.00021739793
0.00024844857
0.00028049033
0.00030852128
0.0003355202
0.00036112305
0.00038590072
0.00040988399
0.00043313317
0.00045564271
0.00047735401
0.00049823526
0.00051823611
0.00053732086
0.00055544425
0.00057255577
0.00058862926
0.00060362767
0.00061753459
0.00063032055
0.00064198389
0.0006524561
0.00066182958
0.00067009112
0.0006772577
0.00068336055
0.0006884249
0.00069246822
0.0006954036
0.00069754085
0.00069905063
0.00069952569
0.00069922642
0.00069819325
0.00069645676
0.00069407734
0.00069107824
0.0006874841
0.00068330962
0.00067857775
0.00067332628
0.00066759681
0.00066143482
0.00065486829
0.00064790766
0.00064054671
0.00063277804
0.00062461596
0.00061606166
0.00060711711
0.00059777464
0.00058796094
0.00057773162
0.00056700556
0.00055570001
0.00054372449
0.00053083784
0.00051684248
0.00050124638
0.00048367507
0.00046294784
0.00043850083
0.00040063928
0.00037894268
0.00038925515
0.00040254962
0.00041275861
0.00041991563
0.00042372502
0.00042739261
0.00043238558
0.00043749328
0.0004412837
0.00044394985
0.00044661211
0.00043916653
0.00042716178
0.00041568357
0.00040599115
0.00039758634
0.00039502387
0.00041136713
0.00043859024
0.00048927092
0.00056774806
0.00066884825
0.00074169134
0.0007244808
0.00055844186
0.00036742747
0.00028004527
0.00037832841
0.00037653019
0.00034995516
0.00016627693
5.1371658e-05
1.446366e-05
1.9980343e-05
1.8632674e-05
1.694561e-05
1.6009823e-05
1.5594319e-05
1.6381516e-05
1.8537191e-05
2.182591e-05
2.6989317e-05
3.4563167e-05
4.5056028e-05
5.7085952e-05
7.0531013e-05
8.6203033e-05
0.00010431016
0.00012372125
0.00014347525
0.00016182672
0.00017570701
0.00018254681
0.00018147498
0.00018773592
0.00023458113
0.0002982993
0.00033912209
0.00038004242
0.00041588409
0.0004500742
0.00048238078
0.00051347139
0.00054344389
0.00057237552
0.00060028179
0.00062710227
0.00065281393
0.00067736807
0.00070073055
0.00072285376
0.00074368816
0.00076321449
0.00078139482
0.0007982184
0.00081365645
0.00082770504
0.00084029873
0.00085154458
0.00086143746
0.00086999917
0.00087727135
0.00088328678
0.00088806874
0.00089151715
0.00089400413
0.00089572322
0.00089621809
0.00089577528
0.00089445433
0.00089229053
0.00088935664
0.00088568123
0.00088129369
0.00087621156
0.00087046176
0.00086408898
0.00085714254
0.00084967638
0.00084172418
0.00083329737
0.00082438792
0.00081498664
0.00080510883
0.00079475555
0.00078392776
0.00077261388
0.00076073565
0.00074834156
0.00073534101
0.00072162944
0.00070709271
0.00069143884
0.00067441921
0.00065543738
0.00063401327
0.0006087127
0.00057879108
0.00053268498
0.00050544406
0.00051785884
0.00053457618
0.00054777192
0.00055734147
0.00056289807
0.00056832601
0.00057537462
0.00058248508
0.00058789784
0.00059199584
0.00059563159
0.00058636631
0.00057182679
0.00055739352
0.00054530735
0.00053527058
0.00053299974
0.00055416445
0.00058752769
0.00065278162
0.00075083011
0.00087591023
0.00096654568
0.0009494538
0.00074788916
0.00050323061
0.00037495774
0.00048630601
0.00047760314
0.00044656497
0.00021973091
6.838897e-05
2.2541317e-05
3.1297116e-05
2.9791617e-05
2.7218763e-05
2.5618961e-05
2.4850285e-05
2.5847527e-05
2.8986693e-05
3.3714561e-05
4.1332841e-05
5.2308326e-05
6.7268279e-05
8.4022882e-05
0.0001030192
0.00012415621
0.00014783753
0.00017259387
0.00019719661
0.00021948284
0.00023593524
0.00024359208
0.00024332306
0.00025486451
0.00031730716
0.00039651396
0.00044834844
0.00049898401
0.00054340502
0.00058545486
0.0006250719
0.00066302876
0.00069950024
0.00073458451
0.00076832225
0.000800653
0.00083156585
0.00086101495
0.00088896879
0.00091537927
0.00094019871
0.00096341692
0.00098499489
0.0010049291
0.0010231916
0.0010397756
0.0010546196
0.0010678465
0.0010794616
0.001089491
0.0010979882
0.0011049943