/*--------------------------------*- C++ -*----------------------------------*\
| =========                 |                                                 |
| \\      /  F ield         | OpenFOAM: The Open Source CFD Toolbox           |
|  \\    /   O peration     | Version:  2.4.0                                 |
|   \\  /    A nd           | Web:      www.OpenFOAM.org                      |
|    \\/     M anipulation  |                                                 |
\*---------------------------------------------------------------------------*/
FoamFile
{
    version     2.0;
    format      ascii;
    class       volScalarField;
    location    "5000";
    object      omega;
}
// * * * * * * * * * * * * * * * * * * * * * * * * * * * * * * * * * * * * * //

dimensions      [0 0 -1 0 0 0 0];

internalField   nonuniform List<scalar> 
15600
(
59370.402
59375.728
59985.258
62964.929
69783.229
76764.123
80995.344
82133.163
80631.043
76961.457
71835.038
66934.377
62738.212
59134.851
56032.304
53355.132
50877.147
48155.846
45198.141
42090.325
38919.846
35805.066
33040.095
30759.964
28965.666
27668.104
26887.355
26648.637
26693.219
26693.219
26693.219
26693.219
26693.22
26693.22
26693.22
26693.22
26693.22
26693.221
26693.221
26693.221
26693.221
26693.221
26693.221
26693.221
26693.221
26693.221
26693.221
26693.221
26693.221
26693.221
26693.221
26693.221
26693.221
26693.22
26693.221
26693.22
26693.22
26693.22
26693.22
26693.22
26693.22
26693.219
26693.219
26693.219
26693.219
26693.219
26693.218
26693.219
26693.219
26693.219
26693.218
26693.218
26693.218
26693.219
26693.218
26693.218
26693.219
26693.218
26693.218
26693.218
26693.218
26693.218
26693.218
26693.218
26693.218
26693.218
26693.218
26693.218
26693.218
26693.218
26693.218
26693.218
26648.638
26887.358
27668.102
28965.666
30759.972
33040.143
35805.122
38919.92
42090.299
45197.921
48155.76
50877.007
53354.938
56032.494
59134.768
62738.344
66934.269
71835.091
76961.412
80631.361
82132.815
80995.118
76764.562
69783.432
62965.025
59985.287
59375.745
59370.396
9807.1219
9806.9344
9908.7652
10399.428
11053.231
12157.289
12829.709
13012.556
12776.945
12197.511
11387.384
10615.465
9979.2273
9514.309
9144.8445
8786.864
8405.5463
7956.4653
7468.3026
6955.2523
6431.7395
5917.2227
5460.241
5083.2896
4786.637
4572.0986
4443.0616
4403.5153
4410.2953
4409.8663
4409.795
4409.7625
4409.7393
4409.7267
4409.7183
4409.7122
4409.7066
4409.7004
4409.6929
4409.6839
4409.6733
4409.6613
4409.6479
4409.6333
4409.6185
4409.6091
4409.5985
4409.5866
4409.5739
4409.5604
4409.5462
4409.5318
4409.5171
4409.5024
4409.488
4409.4738
4409.46
4409.4468
4409.4342
4409.4222
4409.411
4409.4006
4409.3909
4409.3821
4409.3741
4409.3669
4409.3603
4409.3547
4409.3497
4409.3455
4409.342
4409.3391
4409.3368
4409.335
4409.3337
4409.333
4409.3327
4409.3329
4409.3334
4409.3343
4409.3357
4409.3374
4409.3396
4409.3422
4409.3453
4409.3489
4409.3533
4409.3588
4409.3656
4409.3787
4409.4027
4409.7711
4403.2113
4443.0668
4572.1318
4786.6459
5083.2726
5460.1979
5917.1427
6431.6122
6955.0358
7468.0025
7956.1537
8405.2093
8814.3847
9256.8922
9769.6853
10365.318
11058.841
11868.513
12714.168
13318.546
13564.428
13374.398
12674.507
11124.356
10035.098
9913.8838
9812.6489
9809.0595
3121.4768
3121.4562
3155.6723
3311.4743
3569.4143
3923.7933
4140.997
4200.9812
4125.5545
3938.9455
3677.4799
3427.6545
3218.7188
3056.1747
2922.5599
2799.1801
2674.794
2532.0285
2376.7904
2213.5999
2047.0499
1883.3205
1737.8409
1617.8021
1523.3292
1455.0003
1413.9899
1401.6413
1403.8171
1403.5549
1403.5073
1403.5052
1403.5087
1403.5225
1403.5377
1403.5531
1403.566
1403.5754
1403.5802
1403.58
1403.5749
1403.5648
1403.5501
1403.531
1403.5084
1403.4848
1403.4575
1403.4268
1403.3933
1403.3574
1403.3198
1403.281
1403.2415
1403.2017
1403.1622
1403.1233
1403.0854
1403.0489
1403.014
1402.9807
1402.9493
1402.9201
1402.8929
1402.8679
1402.8449
1402.8242
1402.8054
1402.7888
1402.7743
1402.7617
1402.7511
1402.7421
1402.7348
1402.729
1402.7247
1402.7217
1402.72
1402.7195
1402.72
1402.7216
1402.7243
1402.7279
1402.7326
1402.7382
1402.7449
1402.7528
1402.7623
1402.7741
1402.7884
1402.8096
1402.8399
1403.0839
1401.208
1413.9502
1455.0161
1523.2932
1617.7106
1737.6886
1883.103
2046.746
2213.1887
2376.2943
2531.5039
2674.3021
2804.5345
2945.4582
3108.7655
3298.4402
3519.2852
3776.9781
4045.7117
4237.9686
4316.2205
4256.1958
4035.2409
3592.1191
3247.3677
3165.8526
3130.0556
3123.7908
1382.0155
1382.1174
1399.1538
1467.1202
1590.5767
1745.7583
1841.839
1869.0952
1835.8201
1752.9855
1636.7593
1525.5103
1431.7333
1356.4998
1293.7176
1237.0224
1181.389
1118.3974
1049.8842
977.83547
904.28702
831.97915
767.70825
714.64973
672.88946
642.68286
624.67079
619.60208
620.77026
620.61161
620.59546
620.63337
620.67242
620.72023
620.76544
620.80703
620.84131
620.86722
620.88323
620.88908
620.88471
620.87029
620.84633
620.81349
620.77288
620.72597
620.67177
620.61123
620.5454
620.47509
620.40157
620.32588
620.24898
620.17174
620.09505
620.01954
619.94608
619.87538
619.8077
619.74319
619.68242
619.6257
619.57302
619.52457
619.48023
619.44003
619.40387
619.37179
619.34368
619.31945
619.29886
619.2817
619.26766
619.25659
619.24832
619.24276
619.23965
619.23882
619.24006
619.24324
619.24848
619.25544
619.26421
619.2747
619.2869
619.30124
619.31793
619.33817
619.36224
619.39543
619.43847
619.63818
618.90581
624.50397
642.60553
672.73441
714.40829
767.37443
831.54799
903.73146
977.14332
1049.0998
1117.5986
1180.6701
1238.2996
1300.6876
1372.9637
1456.8927
1554.612
1668.5407
1787.1527
1872.6577
1908.117
1883.2285
1789.116
1610.9615
1464.1177
1416.4262
1395.4203
1385.4255
739.86725
739.82673
750.27896
784.86562
850.68209
930.76762
981.10084
996.0768
978.50981
934.46054
872.61331
813.34796
763.14302
722.1645
687.69529
656.94383
627.21199
593.81328
557.47231
519.23175
480.18254
441.7987
407.67191
379.47468
357.28324
341.23614
331.81514
329.58421
330.50471
330.43256
330.4613
330.54698
330.62699
330.71149
330.78724
330.85339
330.90567
330.94297
330.96353
330.96744
330.95473
330.92595
330.88208
330.82424
330.75362
330.67158
330.57877
330.47671
330.36712
330.25117
330.13112
330.0083
329.88428
329.76037
329.63788
329.51783
329.40149
329.28984
329.18323
329.0819
328.98681
328.89825
328.81625
328.74107
328.67251
328.61059
328.5552
328.5063
328.46377
328.42738
328.39681
328.37168
328.35156
328.33617
328.32526
328.31866
328.31594
328.31684
328.32103
328.3282
328.33874
328.35174
328.36749
328.38582
328.40659
328.43046
328.45757
328.48965
328.5269
328.5757
328.63582
328.82925
328.49846
331.4058
340.96348
356.91328
378.98972
407.06233
441.05942
479.2829
518.16821
556.3144
592.66991
626.21463
656.98179
690.30355
728.87811
773.6564
825.79486
886.50656
949.58755
995.92857
1016.1087
1005.0001
958.92228
874.71589
803.41792
774.71943
758.39517
745.21992
449.41811
448.95711
455.85955
474.54277
510.57228
555.5891
584.53032
593.84627
583.48286
557.26845
520.47986
485.21035
455.22762
430.49981
409.60763
391.10268
373.35637
353.5157
331.91112
309.15279
285.90279
263.06128
242.75072
225.9481
212.73174
203.19208
197.77308
196.9544
197.85081
197.85041
197.92475
198.05199
198.16534
198.27632
198.37101
198.4486
198.50472
198.53833
198.54816
198.5346
198.49813
198.44001
198.36182
198.2653
198.15128
198.02216
197.87996
197.72685
197.56526
197.3965
197.22413
197.04945
196.87461
196.70132
196.53117
196.36548
196.20588
196.05349
195.9086
195.77149
195.64354
195.5249
195.41559
195.31587
195.22546
195.14434
195.07234
195.00939
194.95528
194.90966
194.8721
194.84203
194.81893
194.80238
194.79203
194.78763
194.7886
194.79459
194.80511
194.81962
194.83911
194.86156
194.88783
194.91756
194.9505
194.98754
195.02878
195.07655
195.13095
195.1995
195.28118
195.48855
195.3336
196.97854
202.60103
212.03481
225.1129
241.75843
261.9069
284.55199
307.6113
330.27357
351.92519
371.98453
390.51173
410.59163
433.80418
460.73367
492.09122
528.53532
566.27319
594.91218
608.35713
603.69187
579.49836
536.59891
501.2605
485.39257
472.26101
457.53439
300.3344
299.20609
303.692
313.85263
332.03664
358.00334
375.44029
381.75562
375.16834
358.33306
334.76416
312.17415
292.91973
276.94169
263.41195
251.47905
240.07522
227.35849
213.49272
198.8618
183.90707
169.23128
156.1843
145.37565
136.8905
130.80128
127.55464
127.56898
128.49956
128.54137
128.64328
128.78832
128.91153
129.02438
129.11335
129.17766
129.21313
129.21979
129.19669
129.14487
129.06584
128.96164
128.83464
128.68706
128.51973
128.33653
128.14031
127.9338
127.72001
127.49998
127.27879
127.05713
126.83764
126.62214
126.41234
126.20958
126.01574
125.83189
125.65802
125.49435
125.34264
125.20276
125.07466
124.95856
124.85404
124.76104
124.67932
124.60875
124.54906
124.49979
124.46038
124.43015
124.40849
124.39486
124.38888
124.39018
124.39814
124.41227
124.43202
124.45651
124.48775
124.52201
124.56116
124.60456
124.65189
124.70427
124.7618
124.82739
124.90117
124.99194
125.09848
125.3312
125.2662
126.22361
129.76104
135.75547
144.09
154.71463
167.56912
182.01331
196.74929
211.27745
225.21565
238.21351
250.35474
263.53395
278.73472
296.35232
316.8621
340.62582
365.05691
384.41758
394.2352
392.53716
378.90552
356.02048
339.99132
334.41794
325.5259
311.534
216.69181
214.77133
217.56683
223.2486
229.62087
243.77331
254.38734
258.95364
254.54229
243.12025
227.21581
211.98815
198.98396
188.15892
178.98731
170.91357
163.19234
154.59034
145.18978
135.24648
125.07928
115.12134
106.27584
98.940809
93.211213
89.156816
87.235379
87.797799
88.742286
88.774535
88.86628
88.988638
89.084333
89.163156
89.212781
89.231952
89.218699
89.172545
89.094011
88.985179
88.848574
88.687067
88.503737
88.300915
88.080157
87.846285
87.602531
87.351817
87.097449
86.839643
86.584996
86.332924
86.086272
85.846679
85.615676
85.394301
85.184414
84.98692
84.801311
84.627597
84.467742
84.321296
84.188084
84.068207
83.961139
83.866743
83.784734
83.714937
83.65703
83.610512
83.574757
83.548985
83.532661
83.525128
83.525941
83.534855
83.551134
83.574284
83.603704
83.638195
83.681116
83.726618
83.777941
83.834114
83.894831
83.961415
84.034084
84.116239
84.208197
84.319986
84.450858
84.711747
84.698235
85.239838
87.558061
91.553066
97.132571
104.26451
112.88898
122.57905
132.49361
142.31376
151.79121
160.70734
169.17331
178.39124
188.98664
201.24763
215.50623
231.93965
248.58211
262.37717
269.68908
268.91419
260.10344
247.08916
241.80705
244.87888
241.5465
230.48377
165.88577
163.23612
165.02827
168.97992
167.3416
173.0848
179.34914
182.83131
179.76985
171.69309
160.55336
149.90785
140.80548
133.22407
126.80548
121.15068
115.71328
109.65499
103.01015
95.959717
88.751844
81.715498
75.477123
70.306667
66.310343
63.562877
62.526576
63.457465
64.350513
64.302165
64.332222
64.383307
64.409756
64.417806
64.396886
64.345328
64.261922
64.147247
64.002832
63.831696
63.637136
63.422564
63.191339
62.9454
62.687453
62.422141
62.152501
61.881175
61.611262
61.341751
61.080261
60.82457
60.577394
60.33987
60.113098
59.897628
59.694865
59.505662
59.328995
59.164552
59.014133
58.877197
58.753348
58.642601
58.544351
58.458415
58.384491
58.322396
58.271817
58.232266
58.203144
58.183673
58.173542
58.171847
58.178418
58.193011
58.214926
58.243728
58.278863
58.318868
58.368483
58.419862
58.477651
58.5406
58.608484
58.682809
58.763968
58.85571
58.958723
59.083873
59.231552
59.512015
59.528743
59.802583
61.356791
64.105791
67.969095
72.927646
78.91975
85.651241
92.564712
99.452123
106.1471
112.50805
118.67903
125.43189
133.15418
142.07001
152.41218
164.22531
175.86975
185.87336
191.08599
190.10999
183.30581
175.10948
175.40988
185.06093
187.81869
181.0253
132.33132
129.18376
130.54333
134.74617
128.15366
127.02388
130.34621
133.13659
130.96859
125.07265
117.06018
109.42287
102.88913
97.456332
92.864405
88.798828
84.843791
80.437986
75.578627
70.404599
65.122346
59.992872
55.461754
51.719534
48.883089
47.033589
46.623213
47.779135
48.533185
48.32817
48.248738
48.189836
48.118991
48.036793
47.93279
47.80516
47.652718
47.476622
47.278819
47.06265
46.831485
46.588567
46.33683
46.077474
45.813912
45.549563
45.286727
45.027309
44.773705
44.523785
44.285186
44.054369
43.833605
43.623425
43.424414
43.236691
43.0609
42.897971
42.746719
42.606463
42.47846
42.362441
42.257783
42.164472
42.081905
42.009899
41.948177
41.896586
41.854873
41.822633
41.799367
41.784425
41.777647
41.778134
41.785903
41.800768
41.822148
41.849714
41.883029
41.920571
41.967797
42.015989
42.070534
42.130097
42.194603
42.265614
42.343722
42.432742
42.533848
42.658003
42.807298
43.08643
43.117444
43.217164
44.271952
46.206472
48.947066
52.482309
56.749673
61.541587
66.483766
71.437818
76.288897
80.938156
85.566766
90.666587
96.452989
103.11394
110.80727
119.47597
127.68302
134.88087
138.2875
136.77847
130.96457
125.20835
127.91202
141.24936
149.50987
147.2238
108.27869
104.94387
106.20209
111.91395
103.12946
95.789152
96.987662
99.343273
97.805562
93.397302
87.530301
81.95401
77.183752
73.231531
69.896958
66.908802
63.941876
60.649399
56.987651
53.076837
49.09775
45.265242
41.900851
39.145569
37.123854
35.918257
35.957873
37.207273
37.739544
37.327073
37.116381
36.939965
36.773576
36.611713
36.441315
36.259919
36.065169
35.857982
35.639736
35.413207
35.180981
34.945401
34.708322
34.470326
34.234421
34.002482
33.775855
33.555558
33.343062
33.135844
32.940354
32.752729
32.574634
32.406133
32.247417
32.098357
31.958972
31.83015
31.711077
31.600768
31.499757
31.408296
31.325601
31.251692
31.186042
31.1285
31.078848
31.036981
31.002725
30.975787
30.955808
30.942284
30.935137
30.933693
30.937957
30.947865
30.962966
30.983039
31.007779
31.0359
31.072328
31.109362
31.15187
31.198739
31.250035
31.307187
31.370932
31.444805
31.530388
31.637851
31.771027
32.022414
32.053843
32.04606
32.768844
34.156667
36.139678
38.71058
41.808435
45.284191
48.883644
52.512059
56.087116
59.52886
63.058704
66.978746
71.371005
76.410478
82.197032
88.600998
94.363496
99.468571
101.47044
99.625753
94.68281
90.424359
93.583917
107.76644
119.80327
121.49323
89.873419
86.624463
87.891041
95.664818
87.091512
73.999735
73.474892
75.5833
74.520317
71.170898
66.832085
62.718439
59.200049
56.298954
53.852668
51.606737
49.301278
46.78058
43.941959
40.906742
37.838207
34.918835
32.380903
30.333818
28.904103
28.164665
28.520442
29.742698
30.005035
29.389013
29.063837
28.799631
28.570072
28.364647
28.165026
27.967907
27.768721
27.567513
27.364383
27.160976
26.95866
26.758608
26.561483
26.367546
26.178696
25.995627
25.818905
25.648868
25.486178
25.328756
25.181112
25.040048
24.906644
24.780732
24.662308
24.551154
24.447015
24.350586
24.261626
24.179073
24.102768
24.033496
23.970404
23.91357
23.862574
23.817309
23.777622
23.743454
23.714699
23.691164
23.67261
23.658689
23.649298
23.644064
23.642904
23.645848
23.652546
23.662861
23.67659
23.692859
23.715168
23.738107
23.765123
23.79552
23.829407
23.867963
23.911959
23.964396
24.027028
24.108553
24.213998
24.418718
24.441025
24.373613
24.875971
25.891891
27.355046
29.25982
31.549467
34.115354
36.782128
39.48208
42.153218
44.717105
47.440182
50.48907
53.835795
57.664134
62.02969
66.761523
70.785532
74.403193
75.460225
73.621086
69.624745
66.467299
69.184824
82.142485
95.792464
100.41475
75.10702
72.178334
73.439271
83.284595
76.748769
58.558721
56.391915
58.397196
57.714917
55.152251
51.937592
48.892881
46.286579
44.147292
42.339374
40.596527
38.737484
36.760305
34.498782
32.087192
29.675706
27.42075
25.48831
23.965761
22.97408
22.569627
23.123352
24.2249
24.226499
23.463795
23.0721
22.770776
22.522664
22.314826
22.122967
21.943335
21.769095
21.599398
21.433067
21.270679
21.112538
20.95889
20.809609
20.664776
20.525306
20.391237
20.262694
20.139646
20.022273
19.909179
19.803166
19.701972
19.606258
19.515799
19.43054
19.350265
19.274695
19.204304
19.139305
19.078759
19.021992
18.970167
18.922433
18.878923
18.839315
18.803543
18.771508
18.743185
18.718518
18.697388
18.679638
18.665031
18.65348
18.644737
18.638741
18.635541
18.634851
18.63659
18.640621
18.6464
18.656188
18.666507
18.679598
18.695067
18.713
18.734317
18.759734
18.791656
18.831802
18.887201
18.963331
19.117585
19.127882
19.0323
19.388183
20.148214
21.250612
22.69001
24.415393
26.346189
28.358745
30.402201
32.42711
34.353398
36.473143
38.869226
41.431739
44.348595
47.649772
51.150888
53.957011
56.577713
57.080481
55.47594
52.391984
50.081129
52.144
62.89852
76.314957
82.623913
62.788596
60.468013
61.664543
73.25944
69.854224
47.632177
43.656417
45.652824
45.290813
43.339357
40.974027
38.729514
36.80034
35.219544
33.869252
32.459253
30.903396
29.31392
27.467707
25.516122
23.597685
21.843675
20.369936
19.245878
18.579018
18.409556
19.060396
19.980773
19.787468
18.959106
18.55537
18.263679
18.033063
17.8512
17.689485
17.544465
17.407864
17.278368
17.154007
17.034699
16.920117
16.809994
16.703898
16.601785
16.504001
16.410311
16.320668
16.234903
16.153001
16.074073
15.999875
15.928852
15.861436
15.797429
15.736782
15.679321
15.624837
15.573632
15.526179
15.481741
15.439329
15.400307
15.363871
15.330188
15.299012
15.27031
15.244022
15.220146
15.19866
15.179491
15.16254
15.147639
15.134719
15.12361
15.114268
15.10673
15.100782
15.096362
15.093374
15.091475
15.092146
15.093122
15.095907
15.100241
15.106191
15.114464
15.125692
15.141776
15.164314
15.19887
15.250847
15.362354
15.362971
15.257376
15.514429
16.095316
16.943867
18.054335
19.381697
20.864806
22.414119
23.989674
25.549728
27.016766
28.686145
30.584782
32.573267
34.810267
37.322756
39.93117
41.899517
43.866769
44.081163
42.785797
40.468719
38.790486
40.284121
48.728839
60.74128
67.808884
52.460705
50.837225
51.894164
64.734472
64.84826
40.14223
33.966476
35.991532
35.903744
34.4481
32.737107
31.102539
29.681936
28.512046
27.480898
26.290193
24.943212
23.637613
22.104448
20.509317
18.977831
17.615316
16.498791
15.681629
15.252617
15.243578
15.912304
16.632584
16.325195
15.509813
15.134767
14.881069
14.686751
14.542272
14.417488
14.30981
14.210574
14.118448
14.031191
13.948456
13.869655
13.794338
13.722047
13.652673
13.586305
13.52264
13.4616
13.402992
13.346754
13.292333
13.240885
13.191334
13.14399
13.098704
13.05545
13.014102
12.974533
12.936926
12.901874
12.868826
12.836651
12.806772
12.778453
12.751874
12.726847
12.703362
12.681387
12.660932
12.641999
12.624541
12.608498
12.593749
12.580237
12.567844
12.556537
12.546342
12.537097
12.52875
12.521236
12.514326
12.509029
12.50385
12.499822
12.496749
12.494694
12.494217
12.495876
12.501203
12.51168
12.531767
12.566521
12.646792
12.641883
12.535687
12.724259
13.176794
13.843282
14.71745
15.759775
16.922571
18.139161
19.377018
20.599162
21.736851
23.07045
24.584523
26.162559
27.897059
29.831489
31.799549
33.205489
34.724443
34.810283
33.805235
32.079066
30.858158
31.932268
38.39754
48.522967
55.636483
43.872688
42.878823
43.725292
57.18214
60.724317
35.468292
26.514554
28.528906
28.669539
27.630665
26.428682
25.264008
24.227433
23.36028
22.538205
21.502627
20.307604
19.219984
17.940042
16.636311
15.420454
14.371388
13.536472
12.955131
12.695284
12.794609
13.425359
13.958401
13.608915
12.859907
12.534946
12.329052
12.175368
12.067791
11.977161
11.901894
11.833737
11.771576
11.713243
11.658361
11.606293
11.556589
11.50886
11.462987
11.418966
11.376505
11.33555
11.295927
11.257584
11.22019
11.184538
11.149878
11.116449
11.084146
11.052968
11.022826
10.993659
10.965581
10.939212
10.914146
10.889228
10.86585
10.843345
10.8219
10.801365
10.781747
10.763031
10.745238
10.72838
10.712431
10.697353
10.683056
10.669494
10.656584
10.644301
10.632664
10.621548
10.610909
10.600703
10.590776
10.581843
10.57292
10.564711
10.557071
10.550069
10.544165
10.539879
10.538494
10.541391
10.552279
10.575757
10.635112
10.628387
10.526137
10.665873
11.024107
11.557045
12.257966
13.0921
14.021193
14.994253
15.98407
16.956631
17.857771
18.939605
20.1579
21.433068
22.803448
24.315461
25.82481
26.856277
28.05348
28.094037
27.327277
26.037157
25.141019
25.92286
30.846358
39.07769
45.765225
36.800592
36.307234
36.896207
50.370551
56.872419
33.185987
20.826821
22.680407
23.001631
22.316676
21.509604
20.707461
19.96117
19.31851
18.622674
17.712327
16.644718
15.733251
14.674095
13.617256
12.663269
11.866203
11.252074
10.84927
10.707973
10.874419
11.437267
11.81365
11.472025
10.815084
10.54582
10.385747
10.269044
10.192481
10.129582
10.079547
10.034985
9.9950544
9.9578174
9.9229644
9.889905
9.858259
9.8277191
9.7981853
9.7696305
9.7417974
9.71467
9.6880999
9.6620626
9.6363701
9.6115892
9.587186
9.563354
9.5400279
9.5172185
9.4948693
9.4729672
9.4515798
9.4313141
9.4118613
9.3921195
9.37339
9.3550831
9.3373775
9.3201545
9.303431
9.2872043
9.271501
9.2563398
9.2417068
9.2275779
9.2138864
9.2005937
9.1876411
9.1750112
9.1627186
9.1506647
9.1388131
9.1271355
9.1155278
9.1045314
9.0934913
9.0828859
9.0726134
9.0627549
9.0537102
9.045978
9.0406684
9.0391249
9.0445676
9.0610332
9.1070957
9.1010717
9.0048666
9.1088905
9.3961635
9.8288386
10.399901
11.078612
11.833454
12.624455
13.428332
14.212951
14.943432
15.83411
16.82333
17.867502
18.976927
20.17823
21.356352
22.137355
23.095318
23.130373
22.548114
21.574983
20.908549
21.487981
25.260691
31.825535
37.848914
31.019528
30.89454
31.217448
44.173084
53.147955
32.658768
16.653126
18.057205
18.510451
18.119143
17.613581
17.088562
16.561408
16.082678
15.468839
14.668949
13.725998
12.96292
12.1038
11.257625
10.519379
9.9223666
9.4784702
9.2080577
9.1490886
9.351316
9.8357857
10.09134
9.7846817
9.2251778
9.0080428
8.8866666
8.8004453
8.7478389
8.7059727
8.6744552
8.6469496
8.6228301
8.600445
8.5795694
8.5596888
8.5405074
8.521787
8.5034537
8.4854859
8.4676585
8.4499918
8.4323595
8.4147647
8.3971127
8.3798212
8.3625017
8.3453141
8.3282239
8.3112497
8.2943583
8.2775675
8.2609189
8.2449822
8.2295133
8.2135013
8.1981327
8.1828897
8.1679398
8.1531869
8.1386545
8.1243485
8.1102983
8.0965265
8.0830266
8.0697843
8.0567482
8.0438867
8.031159
8.0185531
8.0060813
7.9936656
7.9812759
7.9688955
7.9564592
7.9444075
7.9322889
7.9204314
7.9087719
7.897406
7.8866992
7.8771373
7.8697201
7.8657528
7.8682052
7.8804961
7.9183811
7.9144595
7.8252086
7.902599
8.1353257
8.4910555
8.9626481
9.5227778
10.144854
10.796826
11.458358
12.098551
12.70553
13.447153
14.258769
15.123771
16.0399
17.013249
17.948768
18.561341
19.336187
19.382693
18.940616
18.198142
17.694823
18.131362
21.056511
26.251125
31.538783
26.308927
26.444356
26.533675
38.521385
49.47798
33.060066
13.871351
14.397434
14.935257
14.774379
14.492737
14.175147
13.81306
13.452101
12.904628
12.208687
11.392564
10.762575
10.080296
9.4113916
8.8471116
8.4057902
8.0906261
7.9162325
7.9147164
8.1300572
8.5377803
8.7056718
8.4440093
7.975847
7.8034795
7.7126319
7.6503035
7.6153484
7.5888659
7.5704944
7.5549922
7.5418628
7.5297378
7.5184658
7.5076089
7.4969463
7.4862934
7.475598
7.4648558
7.4538634
7.442672
7.4311712
7.4193868
7.407285
7.3951824
7.3827873
7.3702335
7.3575109
7.3446415
7.3316089
7.3184506
7.3051931
7.2923598
7.2797476
7.2664547
7.253543
7.2405621
7.2276658
7.2147756
7.201919
7.1891078
7.176373
7.1637391
7.1512044
7.1387607
7.1263682
7.114001
7.1016317
7.0892529
7.0768756
7.0644377
7.051915
7.0392989
7.0265624
7.014079
7.0015229
6.9891243
6.9768536
6.9648214
6.9533735
6.9429892
6.9345958
6.9294682
6.9304319
6.9403567
6.9733287
6.9721042
6.8901368
6.9473768
7.1374041
7.4329041
7.8267608
8.2945628
8.8134145
9.3570674
9.907417
10.435841
10.950784
11.573687
12.247715
12.971616
13.737953
14.544895
15.299436
15.798528
16.430349
16.493529
16.158297
15.585137
15.198469
15.530988
17.830132
21.936326
26.510081
22.474249
22.77667
22.704589
33.382191
45.790277
34.037492
12.129028
11.513515
12.095751
12.099757
11.979035
11.811549
11.573524
11.294176
10.815858
10.218565
9.5288601
9.0182196
8.4863953
7.9635844
7.5361668
7.2137158
6.9943119
6.8878143
6.9277567
7.1403533
7.479094
7.5864557
7.3695907
6.9817649
6.8461856
6.7785084
6.7344695
6.7121639
6.6967235
6.6875043
6.6803244
6.6747341
6.6696234
6.6648949
6.6601777
6.6553113
6.6501505
6.6446578
6.63885
6.6325352
6.6257897
6.6185128
6.6107479
6.6025014
6.5940195
6.5850749
6.5757793
6.5661428
6.5561875
6.54591
6.5353588
6.5245525
6.5139661
6.5034217
6.4921323
6.4810344
6.4697402
6.4583886
6.4469155
6.4353509
6.4237106
6.4120262
6.4003229
6.388602
6.3768599
6.3650651
6.3531968
6.3412378
6.3291846
6.3170472
6.3047763
6.292353
6.2797752
6.2670578
6.2545151
6.2419049
6.2293943
6.216982
6.2047925
6.1931604
6.1825612
6.1738727
6.168349
6.1687072
6.1773776
6.2074553
6.2090018
6.1343572
6.1762033
6.3322932
6.5798261
6.9118361
7.3064268
7.7435397
8.2012452
8.6631556
9.1046963
9.5483418
10.075898
10.642636
11.253497
11.902056
12.582146
13.202443
13.624595
14.14338
14.223084
13.970416
13.522969
13.22026
13.474425
15.305849
18.561296
22.483542
19.349927
19.739455
19.593346
28.741329
42.063355
34.906611
11.211617
9.28421
9.8569986
9.962911
9.9548613
9.8908083
9.7449375
9.5223564
9.1169578
8.6130861
8.0432107
7.6362632
7.2274974
6.8226605
6.5008672
6.2678541
6.1189092
6.0605538
6.1289042
6.3298128
6.609403
6.6770006
6.4997334
6.1801358
6.0742008
6.0237157
5.9935661
5.9801702
5.9725837
5.9696569
5.9681966
5.9677351
5.9673888
5.9670959
5.9665412
5.9656103
5.9641859
5.9622381
5.9598071
5.9567028
5.953022
5.9486689
5.9436999
5.9381484
5.9322114
5.9257031
5.9187161
5.9112779
5.9034089
5.8951151
5.886451
5.8774319
5.8684848
5.8594484
5.8496473
5.8398982
5.8298707
5.8196887
5.8093
5.7987361
5.7880158
5.7771705
5.7662258
5.7551846
5.7440465
5.7327866
5.7213887
5.7098435
5.6981503
5.6863189
5.6743103
5.6621101
5.6497243
5.6372089
5.6248195
5.6123747
5.6000008
5.5877202
5.5756696
5.5641769
5.5537147
5.5451244
5.5396467
5.5398941
5.5479677
5.5763504
5.5804608
5.5130123
5.5430331
5.6718125
5.880574
6.1626047
6.4982003
6.869529
7.257914
7.6483312
8.0221357
8.408613
8.858878
9.3409793
9.8604678
10.414993
10.9947
11.517008
11.883655
12.314114
12.408267
12.220284
11.86734
11.625216
11.818393
13.294782
15.889125
19.232548
16.789557
17.210364
17.071095
24.591612
38.37375
34.987704
10.988317
7.6425695
8.1044003
8.2649609
8.3316168
8.3341595
8.2530044
8.0744841
7.7398909
7.3217613
6.8594559
6.5392962
6.2278216
5.916641
5.67558
5.5092077
5.4117438
5.3879275
5.4742383
5.6591131
5.8894004
5.9322265
5.787766
5.5252077
5.442673
5.4051241
5.3852445
5.3782691
5.3761063
5.3775564
5.3799638
5.3829904
5.3858652
5.3885679
5.390828
5.3925663
5.3936846
5.3941539
5.3940398
5.393146
5.3915866
5.3892673
5.386253
5.3825962
5.3784598
5.373684
5.3683434
5.3624815
5.356116
5.3492601
5.3419707
5.3342623
5.3265173
5.3185851
5.3098953
5.301153
5.2920799
5.2827857
5.2732283
5.26344
5.2534418
5.2432649
5.2329342
5.2224543
5.2118267
5.2010322
5.1900583
5.178902
5.1675652
5.1560574
5.1443476
5.1324259
5.1203124
5.1080928
5.0959681
5.0838044
5.0717014
5.0597011
5.0479504
5.0367725
5.026637
5.0183563
5.013162
5.0135536
5.0213972
5.0487495
5.0550964
4.9946086
5.0155309
5.1221134
5.2991408
5.540234
5.8276176
6.1452406
6.476895
6.8086979
7.1297275
7.4688871
7.8559401
8.2702279
8.7158327
9.1939071
9.6932377
10.142401
10.467518
10.829912
10.936137
10.79919
10.518213
10.319591
10.463915
11.666029
13.746611
16.586952
14.67635
15.088467
15.024351
20.927719
34.820549
34.538139
11.441767
6.5016038
6.7407639
6.9251109
7.033588
7.0781982
7.0391354
6.8976279
6.6267858
6.2842918
5.9141659
5.6643787
5.4278687
5.1901315
5.0106551
4.8936946
4.8335899
4.835198
4.931212
5.0985693
5.2886308
5.3167355
5.1986105
4.9833904
4.9191668
4.8916216
4.8791813
4.8767991
4.878389
4.8829012
4.8879355
4.8933133
4.8983591
4.9030794
4.9072403
4.9107834
4.9136315
4.915773
4.9172405
4.9178745
4.9177904
4.9168929
4.9152516
4.9129332
4.9100787
4.9065424
4.902382
4.8976559
4.8923788
4.8865694
4.8802845
4.8735404
4.8666775
4.8595538
4.8516944
4.8437029
4.8353478
4.8267257
4.8178033
4.8086134
4.7991784
4.7895294
4.7796904
4.769667
4.7594626
4.7490623
4.7384572
4.7276493
4.7166425
4.705446
4.6940357
4.6824062
4.6705989
4.6587111
4.6468991
4.6350664
4.6232956
4.6116449
4.6002692
4.589488
4.5797667
4.5718925
4.5670897
4.5677345
4.5755304
4.6021776
4.6103918
4.5565601
4.5704972
4.6588996
4.8096786
5.016851
5.2643512
5.5375737
5.8221989
6.1058603
6.3850402
6.6842937
7.0192737
7.3784857
7.7643057
8.1791544
8.6134957
9.0071327
9.2997143
9.6106489
9.726797
9.6301725
9.4046762
9.2367015
9.3409881
10.327423
12.007506
14.415197
12.91878
13.29167
13.356104
17.745018
31.46231
33.501251
12.743927
5.7440554
5.6830632
5.8726795
5.9983896
6.0667348
6.0536973
5.9446492
5.7275387
5.4494293
5.1555674
4.9615301
4.7818857
4.6012416
4.4687795
4.3885068
4.3552183
4.3763452
4.4756107
4.6256089
4.7834769
4.8031073
4.7059405
4.5299289
4.4800799
4.4603657
4.4531841
4.4541405
4.4584602
4.4650632
4.4718817
4.4788419
4.4853507
4.4914298
4.4968759
4.5016453
4.5056758
4.508961
4.511516
4.5132407
4.5141719
4.5142741
4.5136019
4.5122333
4.5102966
4.5076522
4.5043406
4.500435
4.4959471
4.4909001
4.485349
4.4793132
4.4730946
4.4665593
4.4593172
4.4518814
4.4440621
4.4359437
4.4275012
4.4187672
4.4097656
4.400527
4.3910748
4.3814151
4.3715527
4.3614767
4.3511815
4.340673
4.3299567
4.3190416
4.307909
4.2965618
4.2850631
4.2735066
4.2620152
4.2505218
4.2390987
4.2278167
4.216837
4.2064752
4.1971914
4.1897492
4.1853645
4.1862842
4.1940987
4.2201546
4.2298642
4.1823405
4.1909485
4.2643762
4.3932549
4.5720423
4.7861971
5.0222999
5.2674995
5.5117092
5.7570341
6.022078
6.3139337
6.6278999
6.9649831
7.3273836
7.7084741
8.0593188
8.3253196
8.5983265
8.7225094
8.6577912
8.4753118
8.3280366
8.3989753
9.2129312
10.579361
12.616577
11.445338
11.757619
11.981908
15.037153
28.401586
32.036982
14.827847
5.3195703
4.8664956
5.0462618
5.1726941
5.2518771
5.2549233
5.1726128
4.9995193
4.774724
4.5424472
4.3919208
4.2551379
4.1185725
4.022039
3.9691664
3.9555846
3.9909429
4.0893168
4.2230216
4.3554765
4.3702994
4.2899173
4.1464222
4.1079536
4.0943589
4.0908334
4.0944517
4.1007094
4.1087485
4.1167871
4.1248178
4.132319
4.1393192
4.1456414
4.1512514
4.156098
4.1601764
4.1634897
4.1659659
4.1676482
4.1684457
4.1684592
4.1677672
4.1664918
4.1644928
4.1617928
4.1584798
4.1545633
4.1500697
4.1450513
4.139532
4.1337784
4.1276647
4.1208757
4.1138441
4.106417
4.0986686
4.0905807
4.082186
4.0735097
4.0645817
4.0554247