/*--------------------------------*- C++ -*----------------------------------*\
| =========                 |                                                 |
| \\      /  F ield         | OpenFOAM: The Open Source CFD Toolbox           |
|  \\    /   O peration     | Version:  2.4.0                                 |
|   \\  /    A nd           | Web:      www.OpenFOAM.org                      |
|    \\/     M anipulation  |                                                 |
\*---------------------------------------------------------------------------*/
FoamFile
{
    version     2.0;
    format      ascii;
    class       volSymmTensorField;
    location    "5000";
    object      R;
}
// * * * * * * * * * * * * * * * * * * * * * * * * * * * * * * * * * * * * * //

dimensions      [0 2 -2 0 0 0 0];

internalField   nonuniform List<symmTensor> 
15600
(
(4.2957301e-06 -4.5333181e-09 2.9108606e-29 4.2956639e-06 1.077478e-27 4.2956961e-06)
(3.2636768e-06 -3.0173662e-09 -4.9238695e-29 3.2640299e-06 4.7270457e-27 3.2638522e-06)
(3.8684651e-06 -3.7189362e-09 -5.7442673e-27 3.8703416e-06 1.2589814e-26 3.8694055e-06)
(8.4714417e-08 -1.1872131e-11 -3.0036404e-30 8.4728027e-08 -2.7770075e-32 8.4721133e-08)
(8.0326369e-07 2.0119001e-10 3.7683439e-27 8.0276555e-07 2.2050175e-27 8.0301353e-07)
(1.0065482e-06 1.9125865e-10 -6.5670804e-27 1.0057464e-06 -4.2303621e-27 1.0061463e-06)
(3.6356779e-07 2.7990488e-11 5.983414e-28 3.6338594e-07 8.306462e-28 3.6347675e-07)
(2.4882294e-07 1.1188018e-11 8.8251862e-28 2.4871831e-07 4.4706796e-28 2.4877055e-07)
(1.5771467e-07 4.4942616e-12 1.6409528e-28 1.5766078e-07 1.8994174e-28 1.576877e-07)
(1.2475424e-07 3.0332207e-12 -4.5205727e-30 1.2471536e-07 7.6049099e-32 1.2473478e-07)
(8.7536839e-08 2.0699651e-12 -5.2001159e-29 8.7513189e-08 -2.0315073e-28 8.7525007e-08)
(7.6026643e-08 1.9761917e-12 1.7373616e-30 7.6006885e-08 -4.359361e-32 7.601676e-08)
(7.2916582e-08 2.1161326e-12 -7.6810713e-31 7.2897475e-08 2.5483217e-32 7.2907027e-08)
(7.8640292e-08 2.6234974e-12 2.3401873e-29 7.8618323e-08 3.0852958e-29 7.8629307e-08)
(9.3457477e-08 3.6684285e-12 -6.0100458e-29 9.3428338e-08 -7.857248e-29 9.3442907e-08)
(1.1803912e-07 5.4957458e-12 3.9177355e-30 1.1799688e-07 -1.7054256e-31 1.1801799e-07)
(1.455486e-07 7.9333937e-12 -1.025949e-29 1.454896e-07 3.6544121e-28 1.4551909e-07)
(1.6989256e-07 1.1081069e-11 2.0524161e-28 1.6981663e-07 2.7913388e-28 1.6985458e-07)
(1.9015168e-07 1.5270706e-11 9.9121094e-29 1.9006007e-07 1.3926665e-28 1.9010585e-07)
(2.023464e-07 2.0275301e-11 3.7224056e-29 2.0224442e-07 5.4801232e-29 2.0229538e-07)
(2.0166628e-07 2.507032e-11 3.6453924e-28 2.0156446e-07 -2.2711514e-28 2.0161534e-07)
(1.9215777e-07 2.9367937e-11 -3.7967557e-29 1.9206471e-07 -7.1079942e-29 1.9211122e-07)
(1.7957125e-07 3.2844059e-11 4.1383048e-29 1.7949131e-07 8.7388111e-29 1.7953127e-07)
(1.6384807e-07 3.4358752e-11 6.0702274e-29 1.6378474e-07 1.5633492e-28 1.638164e-07)
(1.3739419e-07 3.0702764e-11 1.5090994e-29 1.3735282e-07 4.9255356e-29 1.3737351e-07)
(1.1548267e-07 2.6596496e-11 -1.0887042e-28 1.1545839e-07 2.3550341e-29 1.1547053e-07)
(8.0403158e-08 1.6834437e-11 -3.231042e-31 8.0394411e-08 -2.5261614e-30 8.0398787e-08)
(1.0008429e-07 2.4412943e-11 1.2014847e-29 1.0008048e-07 1.123863e-29 1.0008239e-07)
(2.467745e-07 9.3723502e-11 1.7062031e-32 2.4677363e-07 -2.5815339e-32 2.4677409e-07)
(4.2122939e-07 2.0748843e-10 5.5988653e-34 4.2122824e-07 -4.6953848e-32 4.2122884e-07)
(5.683652e-07 3.2446395e-10 2.3131582e-34 5.68364e-07 1.7215992e-33 5.6836463e-07)
(7.142558e-07 4.5603196e-10 -2.7923596e-32 7.1425452e-07 1.0005797e-31 7.142552e-07)
(8.4429179e-07 5.8517692e-10 3.2320093e-32 8.4429051e-07 -2.6790362e-32 8.442912e-07)
(9.6693519e-07 7.1620289e-10 3.9351783e-34 9.669339e-07 -1.7766674e-35 9.669346e-07)
(1.0794108e-06 8.4373059e-10 -0 1.0794095e-06 -0 1.0794102e-06)
(1.1841308e-06 9.6835791e-10 -0 1.1841296e-06 -0 1.1841303e-06)
(1.2797283e-06 1.0868177e-09 -8.9351074e-34 1.2797271e-06 -6.4705328e-32 1.2797278e-06)
(1.3662932e-06 1.1977133e-09 -7.0040987e-32 1.3662921e-06 1.0478052e-31 1.3662927e-06)
(1.4426169e-06 1.2981725e-09 7.5968083e-32 1.4426159e-06 -3.772726e-32 1.4426165e-06)
(1.5080477e-06 1.3861301e-09 -1.0529131e-33 1.5080468e-06 3.6973655e-35 1.5080473e-06)
(1.5617986e-06 1.4594829e-09 -3.0972147e-33 1.5617978e-06 9.8400685e-35 1.5617983e-06)
(1.6035356e-06 1.5169137e-09 -8.6164608e-32 1.6035349e-06 -2.480726e-31 1.6035353e-06)
(1.6330163e-06 1.5574339e-09 8.9742135e-32 1.6330159e-06 2.5256512e-31 1.6330162e-06)
(1.6503896e-06 1.5808165e-09 -8.9009021e-32 1.6503893e-06 -3.5345249e-31 1.6503895e-06)
(1.6559797e-06 1.5872921e-09 1.4168408e-31 1.6559796e-06 -4.3726853e-32 1.6559797e-06)
(1.649902e-06 1.5769694e-09 -5.3521436e-32 1.6499021e-06 3.9693942e-31 1.6499021e-06)
(1.6326526e-06 1.5506909e-09 6.1826753e-33 1.6326528e-06 -1.3869827e-34 1.6326527e-06)
(1.6049874e-06 1.5098155e-09 4.0582473e-32 1.6049877e-06 -1.3259633e-31 1.6049876e-06)
(1.5677788e-06 1.45598e-09 -4.6578258e-32 1.5677792e-06 5.6945362e-31 1.5677791e-06)
(1.5220335e-06 1.3910773e-09 7.7435905e-33 1.522034e-06 4.2683e-31 1.5220338e-06)
(1.468739e-06 1.3170166e-09 3.4146344e-32 1.4687396e-06 3.2941562e-31 1.4687393e-06)
(1.4091277e-06 1.2360168e-09 -4.0864138e-32 1.4091285e-06 1.8759529e-31 1.4091281e-06)
(1.3444009e-06 1.150209e-09 3.8657397e-33 1.3444017e-06 -4.804688e-31 1.3444013e-06)
(1.2756905e-06 1.0615479e-09 -0 1.2756913e-06 -2.6035667e-31 1.2756909e-06)
(1.2041467e-06 9.7190479e-10 -0 1.2041475e-06 2.4576984e-31 1.2041471e-06)
(1.1307612e-06 8.8284359e-10 -1.1814324e-33 1.130762e-06 7.9012735e-36 1.1307616e-06)
(1.0564967e-06 7.9575921e-10 -4.6580951e-33 1.0564975e-06 4.1277893e-32 1.0564971e-06)
(9.8233529e-07 7.119333e-10 6.3838432e-33 9.8233607e-07 -3.8397811e-32 9.8233567e-07)
(9.0916477e-07 6.3238595e-10 -9.4991912e-34 9.0916552e-07 3.1764707e-36 9.0916513e-07)
(8.3759046e-07 5.5772189e-10 -0 8.3759117e-07 -0 8.375908e-07)
(7.6801615e-07 4.8826643e-10 -0 7.6801682e-07 -0 7.6801647e-07)
(7.0108378e-07 4.2445894e-10 9.3676252e-34 7.0108439e-07 3.1333565e-36 7.0108407e-07)
(6.3711744e-07 3.6636717e-10 1.7883319e-33 6.37118e-07 -3.1876658e-32 6.371177e-07)
(5.7643056e-07 3.1398795e-10 -3.1584109e-33 5.7643106e-07 2.88385e-32 5.7643079e-07)
(5.1923438e-07 2.6718183e-10 6.9379195e-34 5.1923483e-07 4.6399946e-36 5.1923459e-07)
(4.6561699e-07 2.2568265e-10 -0 4.6561739e-07 1.5739923e-31 4.6561717e-07)
(4.1566049e-07 1.8920479e-10 -0 4.1566085e-07 -1.4052225e-31 4.1566065e-07)
(3.6936295e-07 1.5739512e-10 -0 3.6936327e-07 2.6312773e-31 3.6936309e-07)
(3.2672968e-07 1.2990668e-10 -0 3.2672995e-07 5.6073595e-33 3.267298e-07)
(2.8770626e-07 1.0635936e-10 -0 2.877065e-07 -2.0992446e-31 2.8770637e-07)
(2.5220736e-07 8.6368508e-11 -0 2.5220756e-07 -0 2.5220745e-07)
(2.2010562e-07 6.9545629e-11 -0 2.201058e-07 -0 2.201057e-07)
(1.9122933e-07 5.5505896e-11 -0 1.9122948e-07 -1.5155274e-31 1.9122939e-07)
(1.6539199e-07 4.3888305e-11 -0 1.6539211e-07 -1.358075e-31 1.6539204e-07)
(1.4240208e-07 3.4361186e-11 -2.0561555e-33 1.4240218e-07 2.2975615e-31 1.4240213e-07)
(1.2207368e-07 2.6625512e-11 2.0324608e-33 1.2207377e-07 -3.4097285e-31 1.2207372e-07)
(1.0422671e-07 2.0412662e-11 8.8878452e-34 1.0422678e-07 4.1033088e-31 1.0422674e-07)
(8.8648315e-08 1.5471502e-11 -1.7969094e-33 8.8648373e-08 -2.0416956e-31 8.864834e-08)
(7.515916e-08 1.1589808e-11 2.4947297e-33 7.5159207e-08 1.7558849e-31 7.515918e-08)
(6.3541118e-08 8.5703562e-12 -2.4614923e-33 6.3541156e-08 3.7360824e-32 6.3541134e-08)
(5.3623524e-08 6.2550574e-12 1.6477389e-33 5.3623554e-08 5.6510608e-35 5.3623537e-08)
(4.5218733e-08 4.5007228e-12 -1.1664352e-33 4.5218757e-08 5.5135839e-32 4.5218743e-08)
(3.8183069e-08 3.1958989e-12 -1.0038548e-33 3.8183088e-08 -9.375258e-32 3.8183077e-08)
(3.2311235e-08 2.2343297e-12 1.560093e-33 3.231125e-08 -6.0098146e-32 3.2311241e-08)
(2.750122e-08 1.544454e-12 1.1414995e-34 2.7501231e-08 8.5149301e-32 2.7501225e-08)
(2.3544165e-08 1.0522648e-12 -3.7665332e-34 2.3544174e-08 -4.442457e-32 2.3544169e-08)
(2.041572e-08 7.2115481e-13 -0 2.0415726e-08 3.850906e-32 2.0415722e-08)
(1.7910237e-08 5.0123232e-13 -3.0049066e-34 1.7910241e-08 -6.8850046e-32 1.7910238e-08)
(1.6136975e-08 3.8551817e-13 -2.9171961e-35 1.6136978e-08 1.0348204e-31 1.6136976e-08)
(1.4862565e-08 3.3898377e-13 4.9932371e-34 1.4862565e-08 -5.7777186e-32 1.4862565e-08)
(1.4568702e-08 4.0179283e-13 -9.7530808e-34 1.45687e-08 1.9175845e-32 1.4568701e-08)
(1.449368e-08 5.3334954e-13 5.6533415e-34 1.4493673e-08 -1.3545758e-31 1.4493676e-08)
(2.0034079e-08 1.2803319e-12 5.7175936e-30 2.0034256e-08 5.8427805e-31 2.0034167e-08)
(2.3620846e-08 1.6845165e-12 -3.6502554e-29 2.3621719e-08 5.2126301e-28 2.3621284e-08)
(2.2562807e-08 1.3517261e-12 -1.0965184e-28 2.2564045e-08 4.975697e-28 2.2563429e-08)
(2.0934223e-08 9.5528459e-13 3.409515e-28 2.0935514e-08 -1.2468949e-27 2.0934872e-08)
(1.6804326e-08 4.1282149e-13 1.2305256e-27 1.6805091e-08 -3.1021555e-27 1.6804713e-08)
(1.2599204e-08 5.9915363e-14 -1.0054911e-27 1.2599354e-08 2.1257925e-27 1.2599282e-08)
(1.5477421e-08 -2.1629203e-13 -2.4987978e-28 1.5476746e-08 4.5928187e-28 1.5477087e-08)
(3.0727293e-08 -9.4547486e-13 5.5721086e-28 3.0723496e-08 -8.1645426e-28 3.0725401e-08)
(6.3314824e-08 -2.8821256e-12 -2.1630674e-27 6.3300489e-08 3.1805418e-27 6.3307665e-08)
(1.2323602e-07 -7.1700617e-12 1.6675025e-27 1.2319353e-07 -2.845707e-27 1.2321478e-07)
(2.2004639e-07 -1.5402489e-11 7.3707089e-27 2.1994225e-07 -9.15219e-27 2.199943e-07)
(3.6312575e-07 -3.0163228e-11 4.6644048e-27 3.6290463e-07 -7.5070678e-27 3.6301511e-07)
(5.4180513e-07 -5.2734598e-11 -6.5996744e-27 5.4140568e-07 1.0725263e-26 5.4160521e-07)
(7.3831948e-07 -7.9941008e-11 3.7312015e-28 7.3769332e-07 1.5610218e-29 7.3800607e-07)
(9.8006233e-07 -1.1367923e-10 2.0224536e-31 9.791225e-07 -2.2769202e-31 9.7959187e-07)
(1.2808165e-06 -1.5378637e-10 -2.4417977e-31 1.2794431e-06 2.7839407e-31 1.2801289e-06)
(1.6980052e-06 -2.0631797e-10 -5.3013029e-28 1.6959619e-06 -1.355874e-29 1.6969821e-06)
(2.2781693e-06 -2.7207477e-10 -1.1652538e-26 2.2750844e-06 3.2341057e-26 2.2766245e-06)
(3.36399e-06 -4.2210609e-10 9.4217101e-28 3.358628e-06 1.8411797e-29 3.361304e-06)
(5.2428395e-06 -8.5566687e-10 1.0198298e-25 5.232676e-06 -1.2013648e-25 5.2377469e-06)
(8.4490696e-06 -2.1937685e-09 -0 8.4286834e-06 -0 8.438852e-06)
(1.3929323e-05 -6.5249623e-09 -1.4419016e-33 1.3886957e-05 4.2305298e-36 1.3908086e-05)
(2.386565e-05 -2.192275e-08 -3.0438122e-32 2.3773943e-05 -3.4109258e-31 2.3819669e-05)
(3.6682604e-05 -6.3976077e-08 7.3925298e-27 3.6525996e-05 -6.1349991e-29 3.660408e-05)
(3.7912176e-05 -9.5561104e-08 -2.5263287e-25 3.7794557e-05 9.123167e-25 3.7853229e-05)
(1.8482299e-05 -3.87975e-08 -4.2887296e-26 1.8462095e-05 3.0704302e-25 1.8472198e-05)
(7.7790282e-06 -1.1192745e-08 8.2801819e-30 7.7776088e-06 -4.1202852e-26 7.778318e-06)
(1.2455387e-06 -7.6068214e-10 -4.3728959e-29 1.2455473e-06 -2.9785544e-28 1.2455435e-06)
(2.5389294e-06 -1.6403111e-08 1.5107961e-28 2.5387623e-06 -9.2797152e-27 2.5388444e-06)
(2.3384657e-06 -1.3520268e-08 1.2893093e-26 2.3400303e-06 -1.940517e-26 2.339242e-06)
(1.768502e-06 -1.0238241e-08 2.7279122e-26 1.7735196e-06 6.7499078e-26 1.7710138e-06)
(3.3395716e-07 -4.1474423e-10 1.1434992e-28 3.3437807e-07 1.056858e-30 3.3416892e-07)
(1.6062996e-07 2.1463602e-10 7.5133538e-27 1.6007314e-07 2.2660875e-26 1.6035283e-07)
(1.5487287e-07 1.7495049e-10 1.1118892e-26 1.5413606e-07 5.7373957e-28 1.5450518e-07)
(6.5802278e-08 3.1580704e-11 -5.8995512e-28 6.5600114e-08 -8.8202118e-28 6.5701337e-08)
(4.6443331e-08 1.2930521e-11 -1.174035e-27 4.6323154e-08 7.0570413e-28 4.6383307e-08)
(3.1592171e-08 5.622975e-12 1.0242233e-28 3.1525306e-08 1.3407081e-28 3.1558771e-08)
(2.5840251e-08 3.9168508e-12 -1.8218783e-33 2.5790339e-08 1.8229344e-34 2.5815316e-08)
(1.9760894e-08 2.9415271e-12 3.8766568e-28 1.9727566e-08 2.6126368e-28 1.9744239e-08)
(1.821138e-08 2.9697046e-12 3.1266854e-33 1.8181761e-08 -3.5382281e-33 1.8196575e-08)
(1.8398355e-08 3.3405398e-12 1.9404288e-30 1.8368175e-08 -6.3597726e-32 1.8383268e-08)
(2.0305977e-08 4.1818477e-12 -2.4391345e-28 2.0270817e-08 1.1806088e-28 2.0288398e-08)
(2.4206146e-08 5.7614299e-12 -5.616502e-29 2.4160059e-08 -6.8632497e-29 2.4183104e-08)
(3.0633713e-08 8.5325243e-12 -3.359635e-34 3.0567578e-08 3.3759435e-33 3.0600652e-08)
(3.8976577e-08 1.263898e-11 -7.5660481e-28 3.8881835e-08 -3.8170144e-28 3.8929221e-08)
(4.6782346e-08 1.8139355e-11 -1.0866982e-27 4.6657234e-08 1.4287689e-28 4.6719815e-08)
(5.4549472e-08 2.6037556e-11 -1.1540079e-27 5.4392504e-08 4.8793146e-28 5.4471026e-08)
(6.2315501e-08 3.7152091e-11 -1.7334161e-28 6.2128131e-08 -2.4859101e-28 6.2221865e-08)
(6.9168948e-08 5.1312797e-11 -7.065824e-28 6.8960406e-08 4.3883182e-28 6.9064727e-08)
(7.5432638e-08 6.9064434e-11 -1.4859708e-27 7.5213942e-08 1.2421976e-27 7.5323333e-08)
(8.1968037e-08 9.0201134e-11 -9.6762104e-29 8.1748835e-08 -2.2491103e-28 8.1858467e-08)
(8.8497686e-08 1.1228043e-10 1.8934931e-27 8.8291395e-08 -1.2861998e-27 8.839456e-08)
(9.2550603e-08 1.2655812e-10 -6.5222273e-29 9.2380962e-08 -1.8620266e-28 9.2465773e-08)
(9.511258e-08 1.3575684e-10 -5.5194434e-28 9.4989742e-08 1.1900851e-28 9.505116e-08)
(9.1633904e-08 1.2331417e-10 -4.4371251e-28 9.1570092e-08 9.0996056e-29 9.1601953e-08)
(9.7387348e-08 1.5367118e-10 -6.3099352e-29 9.7360912e-08 7.126621e-30 9.7374127e-08)
(1.4031295e-07 3.2993995e-10 -1.3660772e-30 1.4030448e-07 2.2032496e-31 1.4030869e-07)
(2.211049e-07 6.6272545e-10 2.3570779e-31 2.210947e-07 -1.0700121e-32 2.2109973e-07)
(2.7623841e-07 9.5274047e-10 4.5087866e-32 2.7622866e-07 1.9053137e-34 2.7623347e-07)
(3.3764683e-07 1.2950685e-09 -4.088818e-31 3.3763692e-07 -4.4568356e-32 3.3764177e-07)
(3.9252275e-07 1.6283096e-09 -3.5464234e-33 3.9251314e-07 7.0341474e-32 3.9251783e-07)
(4.4741814e-07 1.9773825e-09 -0 4.4740871e-07 -0 4.4741329e-07)
(4.9991948e-07 2.325828e-09 -0 4.9991036e-07 -0 4.9991477e-07)
(5.5145836e-07 2.6782454e-09 -2.3270154e-33 5.5144961e-07 9.3387817e-35 5.5145381e-07)
(6.0133629e-07 3.0269647e-09 -5.1143509e-31 6.0132804e-07 -1.2877657e-32 6.0133197e-07)
(6.4958432e-07 3.3690723e-09 1.1337749e-30 6.4957673e-07 5.5094064e-31 6.4958031e-07)
(6.95766e-07 3.6981659e-09 -6.2437228e-31 6.9575925e-07 -5.7513058e-31 6.957624e-07)
(7.3953264e-07 4.0087817e-09 4.9697121e-33 7.395269e-07 -1.7451073e-34 7.3952953e-07)
(7.805338e-07 4.2953807e-09 -0 7.8052923e-07 -0 7.8053127e-07)
(8.1846343e-07 4.5532948e-09 -0 8.1846014e-07 7.1303478e-31 8.1846153e-07)
(8.5306614e-07 4.778487e-09 -0 8.5306423e-07 -7.4318087e-31 8.5306493e-07)
(8.8416675e-07 4.968149e-09 -2.6792342e-32 8.8416627e-07 1.0671387e-30 8.8416627e-07)
(9.116834e-07 5.1205563e-09 -8.4189469e-31 9.1168441e-07 -1.870163e-30 9.1168367e-07)
(9.3548076e-07 5.23358e-09 9.2056784e-31 9.3548329e-07 7.8924158e-31 9.354818e-07)
(9.5548059e-07 5.3064363e-09 -4.929213e-32 9.5548462e-07 -2.6551106e-30 9.554824e-07)
(9.7169958e-07 5.3395566e-09 -4.0886228e-31 9.7170506e-07 1.6519106e-30 9.7170213e-07)
(9.8416047e-07 5.3339261e-09 9.5352735e-31 9.8416733e-07 -4.8987642e-31 9.8416373e-07)
(9.9307893e-07 5.2920849e-09 -4.999335e-31 9.9308708e-07 2.7095482e-31 9.9308287e-07)
(9.9831879e-07 5.2149687e-09 6.39616e-33 9.9832811e-07 -3.1064961e-30 9.9832333e-07)
(1.0003925e-06 5.1075423e-09 4.0152874e-31 1.0004029e-06 1.4144523e-30 1.0003976e-06)
(9.9938871e-07 4.9726687e-09 -4.7772195e-31 9.9939995e-07 -1.495805e-31 9.9939427e-07)
(9.9558532e-07 4.8142119e-09 -1.5638257e-31 9.9559729e-07 -2.540537e-30 9.9559127e-07)
(9.8932373e-07 4.6364149e-09 2.1857793e-31 9.8933629e-07 2.5241665e-30 9.8933e-07)
(9.8053948e-07 4.44144e-09 -6.8336422e-33 9.805525e-07 1.3563119e-30 9.80546e-07)
(9.6958771e-07 4.2333944e-09 7.9339706e-32 9.6960103e-07 -8.4700896e-31 9.695944e-07)
(9.5677661e-07 4.0161612e-09 -9.753653e-32 9.5679009e-07 -4.8764297e-31 9.567834e-07)
(9.4294483e-07 3.7954751e-09 9.4836898e-33 9.4295836e-07 -3.7703056e-31 9.4295167e-07)
(9.2823376e-07 3.5734316e-09 -0 9.2824726e-07 3.7117161e-31 9.282406e-07)
(9.1183075e-07 3.3482912e-09 -0 9.1184412e-07 3.9558443e-31 9.1183753e-07)
(8.9475625e-07 3.1256815e-09 -1.1511788e-32 8.9476939e-07 -3.8827431e-31 8.9476293e-07)
(8.7699705e-07 2.9066174e-09 -4.9711841e-32 8.7700991e-07 -5.7163535e-31 8.770036e-07)
(8.5873134e-07 2.6927345e-09 7.077408e-32 8.5874386e-07 -1.0940034e-30 8.5873773e-07)
(8.4014073e-07 2.4853885e-09 1.2881864e-32 8.4015286e-07 1.6184254e-30 8.4014693e-07)
(8.2129367e-07 2.2852759e-09 7.266724e-32 8.2130538e-07 1.1650225e-31 8.2129967e-07)
(8.0227115e-07 2.0931016e-09 -6.8556946e-32 8.0228242e-07 -3.4824591e-30 8.0227693e-07)
(7.8311318e-07 1.9092618e-09 1.8327794e-31 7.8312398e-07 6.8966169e-30 7.8311873e-07)
(7.638851e-07 1.734238e-09 -1.0264075e-31 7.638954e-07 -3.2864543e-30 7.638904e-07)
(7.4466808e-07 1.5683831e-09 -1.4280119e-31 7.4467788e-07 3.1317015e-30 7.4467313e-07)
(7.2554161e-07 1.4119438e-09 4.4162367e-32 7.2555089e-07 -6.6179253e-30 7.255464e-07)
(7.065794e-07 1.2650116e-09 -4.6713954e-32 7.0658817e-07 3.2564499e-30 7.0658393e-07)
(6.8780372e-07 1.1274382e-09 -1.4173534e-31 6.8781198e-07 6.3636137e-30 6.87808e-07)
(6.692015e-07 9.9897593e-10 5.8607255e-32 6.6920927e-07 -1.3176136e-29 6.6920553e-07)
(6.507236e-07 8.7933176e-10 1.1719011e-31 6.5073087e-07 6.7925894e-30 6.5072738e-07)
(6.3232413e-07 7.6827044e-10 -1.2646092e-31 6.3233092e-07 3.5681115e-30 6.3232767e-07)
(6.1400737e-07 6.6565645e-10 2.1100469e-31 6.1401368e-07 -7.4169539e-30 6.1401066e-07)
(5.9573752e-07 5.7118355e-10 -8.2894096e-32 5.9574336e-07 7.727421e-30 5.9574057e-07)
(5.7749434e-07 4.8470985e-10 8.5021606e-32 5.7749971e-07 -1.368298e-29 5.7749715e-07)
(5.5924368e-07 4.0589582e-10 6.9086952e-32 5.592486e-07 4.0423795e-30 5.5924627e-07)
(5.407334e-07 3.3456252e-10 -1.4640953e-31 5.4073786e-07 5.8441076e-30 5.4073575e-07)
(5.2218085e-07 2.7063013e-10 -0 5.2218485e-07 -3.5232913e-30 5.2218297e-07)
(5.0333854e-07 2.1411761e-10 -7.7617115e-32 5.0334208e-07 7.0198852e-30 5.0334042e-07)
(4.8408377e-07 1.6465989e-10 4.5299245e-32 4.8408684e-07 -5.6945083e-30 4.8408541e-07)
(4.6429559e-07 1.226159e-10 2.6692004e-32 4.6429819e-07 -2.9026778e-30 4.6429699e-07)
(4.4357923e-07 8.7436065e-11 -1.5494579e-32 4.4358132e-07 9.7763894e-30 4.4358037e-07)
(4.2172193e-07 6.0086331e-11 -5.2798475e-32 4.217235e-07 -9.2982977e-30 4.217228e-07)
(3.9801772e-07 3.9794141e-11 1.7457245e-31 3.9801868e-07 -9.8929888e-30 3.9801827e-07)
(3.7219982e-07 2.8467491e-11 3.28673e-32 3.7220015e-07 1.2610006e-29 3.7220006e-07)
(3.427528e-07 2.4345788e-11 -2.3551279e-31 3.4275237e-07 -5.473204e-31 3.4275264e-07)
(3.097466e-07 3.0853216e-11 -2.6034754e-33 3.0974542e-07 -2.3032441e-30 3.0974607e-07)
(2.6053601e-07 4.0683462e-11 1.4856947e-31 2.6053363e-07 1.1322348e-30 2.6053485e-07)
(2.3626662e-07 7.3865015e-11 8.5260539e-32 2.3627526e-07 -6.6224535e-31 2.3627096e-07)
(2.5064734e-07 8.9164612e-11 2.7762709e-27 2.5069375e-07 -3.1089876e-26 2.5067045e-07)
(2.7203397e-07 7.9321941e-11 2.8179195e-26 2.7210819e-07 -1.3754472e-25 2.7207092e-07)
(2.9546858e-07 6.2268174e-11 4.9763244e-28 2.955559e-07 -7.5903832e-27 2.9551195e-07)
(3.2056674e-07 2.9590136e-11 -2.0992873e-25 3.2062693e-07 5.4722176e-25 3.2059647e-07)
(3.4658817e-07 -6.3967683e-12 6.1970196e-26 3.4658123e-07 -1.1757298e-25 3.4658424e-07)
(3.79062e-07 -4.6462498e-11 -8.7000289e-26 3.7892851e-07 1.4490524e-25 3.7899476e-07)
(4.2119064e-07 -9.068738e-11 8.9835602e-26 4.2084412e-07 -1.4440992e-25 4.2101689e-07)
(4.7039105e-07 -1.393863e-10 -5.3207508e-26 4.6972235e-07 7.8758748e-26 4.7005635e-07)
(5.2453184e-07 -1.9175932e-10 1.1231155e-25 5.2342623e-07 -1.4877747e-25 5.2397891e-07)
(5.8356419e-07 -2.5122846e-10 -2.6675721e-25 5.8190091e-07 3.6732963e-25 5.8273281e-07)
(6.5100481e-07 -3.2738969e-10 1.3478909e-25 6.4864e-07 -1.5687081e-25 6.4982317e-07)
(7.0728857e-07 -4.1218996e-10 -3.1646209e-25 7.041948e-07 3.9603148e-25 7.05743e-07)
(7.5686537e-07 -4.880422e-10 -3.6805559e-27 7.5306576e-07 -1.502172e-28 7.5496733e-07)
(8.1555892e-07 -5.6117315e-10 -1.8515524e-25 8.1093919e-07 2.348584e-25 8.132514e-07)
(8.9096487e-07 -6.3288654e-10 -2.0053467e-30 8.8533167e-07 2.4706737e-30 8.881514e-07)
(9.9325523e-07 -7.1151465e-10 2.9806089e-27 9.8622505e-07 7.3536124e-29 9.8974447e-07)
(1.1348683e-06 -7.980235e-10 3.2097293e-26 1.1258501e-06 -8.9927434e-26 1.1303655e-06)
(1.4538346e-06 -1.0682651e-09 2.0555436e-25 1.4403079e-06 -2.4771145e-25 1.4470823e-06)
(1.9474117e-06 -1.8455677e-09 -3.1268566e-25 1.925518e-06 6.2484445e-25 1.9364859e-06)
(2.7558442e-06 -4.1195101e-09 2.3212611e-25 2.7175588e-06 -2.8006748e-25 2.736742e-06)
(4.1294968e-06 -1.10467e-08 1.5081253e-25 4.057772e-06 -2.0343631e-25 4.0937169e-06)
(6.4140767e-06 -3.3200695e-08 -2.622804e-31 6.2750317e-06 3.6266183e-31 6.3447233e-06)
(9.3029614e-06 -9.3486991e-08 -4.9314077e-30 9.0732347e-06 2.8582859e-30 9.1883773e-06)
(9.4674135e-06 -1.3861721e-07 3.7364178e-25 9.2951827e-06 -1.320258e-24 9.3814487e-06)
(5.4132128e-06 -6.7379585e-08 6.215517e-26 5.3772167e-06 -5.0487986e-25 5.3952171e-06)
(2.8742841e-06 -2.5671132e-08 -2.5632488e-26 2.8705916e-06 8.4491423e-26 2.8724195e-06)
(1.7941035e-06 -7.9713235e-09 9.4185216e-28 1.7941193e-06 9.8023882e-27 1.7941172e-06)
(1.5112032e-05 -3.1079494e-07 -5.5941755e-26 1.5109894e-05 2.0456085e-25 1.5110907e-05)
(1.4652949e-05 -2.7518836e-07 -2.3453254e-25 1.4684388e-05 -3.9757508e-25 1.4668499e-05)
(9.5644711e-06 -1.7337196e-07 -1.973376e-25 9.6466534e-06 -1.5842507e-24 9.6056667e-06)
(2.5060484e-06 -1.2932368e-08 1.6469912e-25 2.5185439e-06 5.5684835e-25 2.5122885e-06)
(3.5460805e-07 1.1965414e-09 -1.2028125e-25 3.5136228e-07 -1.3797025e-25 3.5298659e-07)
(8.4085909e-08 2.7746982e-10 -1.590171e-26 8.2927696e-08 2.0151873e-26 8.3506813e-08)
(1.0315541e-07 1.5246542e-10 -5.3445542e-27 1.0220565e-07 -6.8420238e-27 1.0268074e-07)
(8.22985e-08 7.056008e-11 -1.683487e-27 8.1658445e-08 -9.5043584e-27 8.1978487e-08)
(6.8488125e-08 3.7897159e-11 -5.5301235e-27 6.8049072e-08 8.8294074e-28 6.8268647e-08)
(6.0706143e-08 2.8579227e-11 1.3539769e-27 6.035061e-08 1.5931539e-27 6.0528387e-08)
(5.4912622e-08 2.5447726e-11 -1.4463442e-27 5.4629505e-08 1.3726564e-27 5.4771077e-08)
(5.5734344e-08 2.8109464e-11 -1.0602271e-27 5.5456238e-08 -1.2672961e-27 5.5595297e-08)
(6.0828828e-08 3.410233e-11 -2.1342213e-29 6.0521258e-08 7.1323061e-31 6.0675047e-08)
(7.0435536e-08 4.4819149e-11 7.6686783e-28 7.0057448e-08 -3.2812426e-27 7.0246493e-08)
(8.623765e-08 6.3495453e-11 5.9289301e-27 8.5726442e-08 -1.534367e-27 8.5982047e-08)
(1.1094641e-07 9.555266e-11 5.350983e-30 1.1020084e-07 -4.7737747e-32 1.1057363e-07)
(1.468628e-07 1.4720559e-10 6.0636662e-27 1.4575426e-07 -5.0421664e-27 1.4630855e-07)
(1.8146794e-07 2.1741877e-10 6.1631129e-27 1.7996484e-07 -9.8795882e-27 1.8071643e-07)
(2.2014705e-07 3.2461023e-10 1.1670117e-26 2.1818938e-07 -8.360305e-27 2.1916827e-07)
(2.674927e-07 4.929076e-10 2.5095932e-26 2.6501037e-07 -1.4198449e-26 2.6625163e-07)
(3.2163669e-07 7.3899226e-10 1.0796961e-28 3.1864104e-07 -1.4297129e-29 3.2013895e-07)
(3.8073244e-07 1.082998e-09 6.2517548e-26 3.7731275e-07 -3.4217258e-26 3.7902271e-07)
(4.4524466e-07 1.5282791e-09 2.6204861e-27 4.4154131e-07 6.0315589e-27 4.4339306e-07)
(5.1302865e-07 2.0418689e-09 -3.5169972e-26 5.0929096e-07 1.3686943e-26 5.1115993e-07)
(5.7301205e-07 2.4872954e-09 1.9318664e-27 5.696931e-07 5.7506624e-27 5.713525e-07)
(6.1640204e-07 2.8307597e-09 -9.7550553e-27 6.1385771e-07 1.0345724e-26 6.1513021e-07)
(6.2687163e-07 2.8129967e-09 2.3497009e-26 6.2541407e-07 -2.1984062e-27 6.2614224e-07)
(6.5004957e-07 3.4395122e-09 -5.8596391e-29 6.4940529e-07 -1.3402729e-27 6.4972767e-07)
(8.2581031e-07 6.2412344e-09 -2.6636616e-30 8.2554709e-07 -1.0558087e-30 8.2567867e-07)
(1.2662024e-06 1.1983808e-08 -2.7423367e-32 1.2658917e-06 2.4975255e-30 1.2660464e-06)
(1.536568e-06 1.6607184e-08 -0 1.5362793e-06 -8.2904779e-32 1.5364235e-06)
(1.8570989e-06 2.2186337e-08 -0 1.8568081e-06 -3.5599308e-30 1.856953e-06)
(2.1438748e-06 2.7589315e-08 -0 2.1435941e-06 -0 2.1437341e-06)
(2.4387506e-06 3.3323446e-08 -0 2.438475e-06 -0 2.4386123e-06)
(2.72594e-06 3.9103014e-08 -0 2.7256725e-06 -0 2.7258057e-06)
(3.0139806e-06 4.5022798e-08 -0 3.0137225e-06 -0 3.013851e-06)
(3.2989112e-06 5.0964639e-08 7.46993e-32 3.2986665e-06 2.9505969e-30 3.2987883e-06)
(3.5808773e-06 5.6884925e-08 1.5714809e-29 3.5806502e-06 -7.9352772e-30 3.5807631e-06)
(3.8577855e-06 6.2688126e-08 -1.7104762e-29 3.8575815e-06 5.1014983e-30 3.8576829e-06)
(4.1276266e-06 6.8284748e-08 9.3456278e-32 4.1274511e-06 -1.1666092e-29 4.1275382e-06)
(4.3885234e-06 7.3585254e-08 -0 4.3883811e-06 1.2398783e-29 4.3884516e-06)
(4.638457e-06 7.8505368e-08 -0 4.6383524e-06 -0 4.6384041e-06)
(4.875703e-06 8.2970018e-08 -0 4.8756395e-06 -0 4.8756707e-06)
(5.0987407e-06 8.6918571e-08 -0 5.0987207e-06 -0 5.0987301e-06)
(5.3065717e-06 9.0306415e-08 -0 5.3065979e-06 3.4118492e-29 5.3065843e-06)
(5.4980042e-06 9.3081946e-08 -7.111312e-31 5.4980786e-06 7.4023322e-30 5.4980409e-06)
(5.6719281e-06 9.5213643e-08 -2.5673161e-29 5.6720511e-06 -4.7547653e-29 5.6719892e-06)
(5.8276614e-06 9.6687241e-08 2.7427041e-29 5.8278328e-06 2.9853128e-29 5.8277467e-06)
(5.9644449e-06 9.749619e-08 -1.4243652e-29 5.9646633e-06 -5.8748994e-29 5.9645539e-06)
(6.0828706e-06 9.7665471e-08 2.7275461e-29 6.0831341e-06 -2.999199e-29 6.0830022e-06)
(6.1808255e-06 9.7182296e-08 -1.3798246e-29 6.1811312e-06 -2.4960006e-30 6.1809783e-06)
(6.2609725e-06 9.6122117e-08 5.3853763e-31 6.2613168e-06 -3.9611722e-29 6.2611447e-06)
(6.3226919e-06 9.4512075e-08 -7.2539492e-31 6.3230706e-06 4.0005733e-29 6.3228814e-06)
(6.3669428e-06 9.2406765e-08 -1.2066298e-29 6.3673517e-06 1.9565598e-29 6.3671475e-06)
(6.3951398e-06 8.9870479e-08 1.3999325e-29 6.3955745e-06 -1.9671981e-29 6.3953574e-06)
(6.4057139e-06 8.6924951e-08 4.8695786e-30 6.4061698e-06 1.9456107e-30 6.4059422e-06)
(6.4003921e-06 8.3640252e-08 -6.4242107e-30 6.4008645e-06 -4.4791696e-29 6.4006287e-06)
(6.380513e-06 8.0082934e-08 2.9206338e-31 6.3809969e-06 4.2732857e-29 6.3807555e-06)
(6.3516388e-06 7.6367513e-08 -1.2032097e-30 6.3521303e-06 -5.5525718e-31 6.3518851e-06)
(6.3142198e-06 7.2531745e-08 1.5586563e-30 6.3147157e-06 5.5168568e-31 6.3144683e-06)
(6.2615056e-06 6.8529577e-08 9.4300131e-31 6.2620021e-06 5.9349988e-31 6.2617545e-06)
(6.2007357e-06 6.4483396e-08 -1.2997132e-30 6.2012293e-06 -5.8825825e-31 6.2009831e-06)
(6.1314593e-06 6.0415881e-08 -4.2580931e-31 6.1319471e-06 5.2566728e-29 6.1317039e-06)
(6.0547253e-06 5.6365078e-08 -3.3624933e-30 6.0552048e-06 -9.1017592e-29 6.0549657e-06)
(5.9717158e-06 5.2365083e-08 4.3872058e-30 5.972185e-06 3.8576619e-29 5.9719511e-06)
(5.8828694e-06 4.8437324e-08 -1.6772828e-30 5.8833266e-06 -3.5231489e-29 5.8830987e-06)
(5.7887259e-06 4.4603534e-08 -3.9004734e-30 5.7891695e-06 2.9370711e-29 5.7889484e-06)
(5.6895994e-06 4.0879772e-08 1.1739045e-29 5.6900281e-06 -1.3805176e-28 5.6898145e-06)
(5.5859906e-06 3.7283646e-08 -6.6164291e-30 5.5864029e-06 6.8502575e-29 5.5861975e-06)
(5.4785897e-06 3.3830489e-08 3.4862785e-30 5.4789848e-06 7.6168497e-29 5.478788e-06)
(5.368105e-06 3.0533127e-08 -8.8569244e-30 5.3684821e-06 -1.0695956e-29 5.3682943e-06)
(5.2552464e-06 2.7400873e-08 8.7494977e-30 5.255605e-06 5.3808047e-30 5.2554264e-06)
(5.1403709e-06 2.4437518e-08 1.1223994e-30 5.140711e-06 8.2785817e-29 5.1405416e-06)
(5.0235777e-06 2.1644152e-08 -1.2749526e-29 5.0238992e-06 5.1822944e-29 5.0237391e-06)
(4.9046907e-06 1.9020317e-08 1.0364339e-29 4.9049935e-06 -1.2960948e-28 4.9048427e-06)
(4.7835529e-06 1.6566233e-08 -2.1737364e-30 4.783837e-06 1.4123718e-28 4.7836955e-06)
(4.6603909e-06 1.4283693e-08 -0 4.6606562e-06 -1.3766185e-28 4.6605241e-06)
(4.5351553e-06 1.2170493e-08 -2.2250306e-30 4.535402e-06 -6.6968649e-32 4.5352792e-06)
(4.4078812e-06 1.0227191e-08 -2.9997351e-30 4.4081094e-06 1.3570938e-28 4.4079958e-06)
(4.2785385e-06 8.4499389e-09 4.6500492e-30 4.2787482e-06 -2.7531262e-28 4.2786439e-06)
(4.1453502e-06 6.8377944e-09 4.5079564e-30 4.1455413e-06 9.7953721e-30 4.1454463e-06)
(4.010208e-06 5.3914516e-09 -2.3218662e-30 4.0103803e-06 4.1774295e-32 4.0102946e-06)
(3.8713432e-06 4.1134631e-09 -2.3080778e-30 3.8714963e-06 2.6527834e-32 3.8714202e-06)
(3.7280227e-06 2.9978302e-09 -1.2792832e-30 3.7281563e-06 1.1302728e-28 3.7280899e-06)
(3.5794168e-06 2.0538438e-09 5.6483176e-30 3.5795305e-06 -1.1694227e-28 3.579474e-06)
(3.4226828e-06 1.2715226e-09 -2.5573912e-30 3.4227753e-06 -1.1425544e-28 3.4227294e-06)
(3.2561947e-06 6.7338541e-10 -8.014602e-30 3.2562648e-06 1.0826357e-28 3.2562301e-06)
(3.0746877e-06 2.4505552e-10 6.0508532e-30 3.0747328e-06 1.9395429e-28 3.0747105e-06)
(2.8759734e-06 2.9368778e-11 3.6255505e-30 2.8759918e-06 -3.7847184e-28 2.8759829e-06)
(2.6485188e-06 -8.624023e-12 -2.8679928e-30 2.6485052e-06 1.817213e-28 2.6485121e-06)
(2.3923754e-06 2.0451713e-10 -2.7022272e-30 2.39233e-06 -1.4007647e-31 2.3923529e-06)
(2.0103224e-06 5.3327357e-10 1.3999608e-30 2.0102274e-06 2.8429035e-28 2.0102747e-06)
(1.8162727e-06 1.3277902e-09 1.0351542e-26 1.8163796e-06 -2.8314292e-25 1.8163265e-06)
(1.9246261e-06 1.6577084e-09 3.0812213e-25 1.9254832e-06 -2.3836042e-24 1.9250539e-06)
(2.0922407e-06 1.4188175e-09 -5.0858248e-25 2.0935899e-06 2.3317144e-24 2.0929152e-06)
(2.276567e-06 1.0151332e-09 -5.7790402e-25 2.2780449e-06 2.4071653e-24 2.2773048e-06)
(2.4768598e-06 2.6565783e-10 1.9165698e-24 2.4775412e-06 -4.8140208e-24 2.4771997e-06)
(2.6848027e-06 -5.564759e-10 2.091132e-24 2.6837501e-06 -4.7969646e-24 2.6842749e-06)
(2.9358434e-06 -1.4724502e-09 -1.9174942e-25 2.9316765e-06 3.4986844e-25 2.9337589e-06)
(3.2490793e-06 -2.4791132e-09 -2.8132047e-24 3.2398315e-06 4.7313516e-24 3.244454e-06)
(3.5990321e-06 -3.5706905e-09 3.0479488e-24 3.5823292e-06 -4.8294415e-24 3.5906801e-06)
(3.9584377e-06 -4.7073526e-09 -3.4425685e-24 3.9319734e-06 4.771879e-24 3.9452055e-06)
(4.3167224e-06 -5.9417629e-09 -4.907272e-25 4.2783466e-06 1.943028e-25 4.2975359e-06)
(4.6907893e-06 -7.4467935e-09 -3.7474718e-24 4.6382245e-06 4.8853608e-24 4.6645092e-06)