/*--------------------------------*- C++ -*----------------------------------*\
| =========                 |                                                 |
| \\      /  F ield         | OpenFOAM: The Open Source CFD Toolbox           |
|  \\    /   O peration     | Version:  2.4.0                                 |
|   \\  /    A nd           | Web:      www.OpenFOAM.org                      |
|    \\/     M anipulation  |                                                 |
\*---------------------------------------------------------------------------*/
FoamFile
{
    version     2.0;
    format      ascii;
    class       volVectorField;
    location    "5000";
    object      U;
}
// * * * * * * * * * * * * * * * * * * * * * * * * * * * * * * * * * * * * * //

dimensions      [0 1 -1 0 0 0 0];

internalField   nonuniform List<vector> 
15600
(
(0.01481848 5.9961515e-05 -1.3670438e-20)
(0.012860525 -0.00038143401 6.2074751e-25)
(0.014012547 -0.0017543534 3.4794176e-19)
(0.0017833309 -0.00055582974 0)
(-0.0058857501 0.0027197562 5.4992738e-19)
(-0.0061695492 0.0038433973 -2.2311143e-19)
(-0.0035176987 0.0025859635 -1.8114018e-19)
(-0.0028144186 0.0022622319 1.1839376e-19)
(-0.0021968912 0.00185245 -1.0037761e-19)
(-0.001944955 0.0016572149 -3.3673165e-25)
(-0.0016395083 0.0013741515 1.2932374e-19)
(-0.0015421821 0.0012619532 -4.3324896e-25)
(-0.0015218398 0.0012203324 8.7171301e-25)
(-0.0015903684 0.0012541435 5.6279484e-20)
(-0.001742199 0.0013561992 5.6399281e-20)
(-0.0019645428 0.0015155363 0)
(-0.0021883122 0.0016728691 -9.8044866e-20)
(-0.0023831257 0.0017812694 -4.0525598e-20)
(-0.0025557244 0.0018355485 0)
(-0.0026872309 0.0018169795 -1.5026194e-20)
(-0.0027489543 0.0017053995 4.5865318e-23)
(-0.0027625098 0.0015199608 0)
(-0.0027509711 0.0012986875 -2.1894681e-20)
(-0.0026998025 0.0010546046 0)
(-0.0025274884 0.0007739662 -1.4274618e-20)
(-0.0023565375 0.00051526025 3.5100869e-24)
(-0.001976681 0.00025443067 0)
(-0.0022336233 8.3075358e-05 -4.6109665e-24)
(-0.0035541997 2.0385929e-06 3.7880875e-24)
(-0.0046497624 1.8889707e-06 0)
(-0.0054075983 1.8263978e-06 0)
(-0.0060645008 1.887587e-06 -1.1598888e-24)
(-0.0065950583 1.9416904e-06 1.1598596e-24)
(-0.007058303 2.006954e-06 0)
(-0.0074574319 2.0670152e-06 0)
(-0.0078101875 2.1145806e-06 0)
(-0.0081182897 2.1466039e-06 0)
(-0.0083869402 2.1580244e-06 1.9898497e-24)
(-0.0086161929 2.1483503e-06 -1.9898286e-24)
(-0.0088072271 2.115355e-06 0)
(-0.0089602219 2.0619089e-06 0)
(-0.0090761808 1.9875864e-06 5.6517702e-24)
(-0.0091558523 1.896018e-06 -5.6517529e-24)
(-0.0092006414 1.7874059e-06 7.8246405e-24)
(-0.0092120035 1.6643142e-06 -1.2312323e-23)
(-0.0091904157 1.5264677e-06 4.4876834e-24)
(-0.0091370998 1.3782067e-06 0)
(-0.0090537054 1.2205468e-06 -6.3047836e-24)
(-0.0089419716 1.0576941e-06 6.3048134e-24)
(-0.0088038115 8.89686e-07 0)
(-0.0086410106 7.1994183e-07 -8.1947918e-24)
(-0.0084559134 5.5073631e-07 8.1948639e-24)
(-0.0082508604 3.8438676e-07 0)
(-0.0080280032 2.2107691e-07 0)
(-0.0077896595 6.35836e-08 0)
(-0.0075378598 -8.9065582e-08 0)
(-0.0072746372 -2.3354078e-07 2.9776661e-24)
(-0.0070023519 -3.6947263e-07 -2.9777068e-24)
(-0.0067232074 -4.9680999e-07 0)
(-0.0064387702 -6.159178e-07 0)
(-0.006150252 -7.2678864e-07 0)
(-0.0058596833 -8.2720607e-07 0)
(-0.0055682921 -9.198548e-07 -3.8080046e-24)
(-0.0052774656 -1.0023371e-06 3.8080601e-24)
(-0.0049883725 -1.0777643e-06 0)
(-0.0047018129 -1.1445016e-06 0)
(-0.0044187476 -1.2043068e-06 0)
(-0.0041398757 -1.2556125e-06 0)
(-0.0038661249 -1.3003049e-06 0)
(-0.00359824 -1.3373367e-06 0)
(-0.0033369385 -1.368555e-06 0)
(-0.0030827833 -1.3934412e-06 0)
(-0.0028361064 -1.414038e-06 0)
(-0.002597179 -1.4295434e-06 0)
(-0.0023662751 -1.441122e-06 0)
(-0.0021437684 -1.4473542e-06 4.1150732e-23)
(-0.0019301389 -1.4501855e-06 -8.2931848e-23)
(-0.0017255117 -1.4491365e-06 8.4168486e-23)
(-0.0015304601 -1.4449938e-06 -8.5359719e-23)
(-0.0013449593 -1.4372821e-06 4.2972319e-23)
(-0.0011699237 -1.4258574e-06 0)
(-0.0010055491 -1.4107659e-06 -4.4600852e-23)
(-0.00085345395 -1.3914479e-06 8.9706671e-23)
(-0.00071361811 -1.3693026e-06 4.8671354e-25)
(-0.00058871577 -1.3424647e-06 -4.5592823e-23)
(-0.00047835305 -1.3119838e-06 0)
(-0.00038809932 -1.2735121e-06 0)
(-0.00031719967 -1.2293105e-06 0)
(-0.00027745937 -1.172148e-06 4.7815384e-23)
(-0.0002663821 -1.1020997e-06 4.1547125e-25)
(-0.00031176595 -1.0162999e-06 -4.8230716e-23)
(-0.00039840344 -8.2430681e-07 1.9624234e-22)
(-0.00066136847 -2.4154974e-05 -1.9647079e-22)
(-0.00075291211 -9.4426449e-05 -8.1307751e-19)
(-0.00067862525 -0.00014381211 -3.2357824e-18)
(-0.0005779135 -0.00017030793 -2.2108021e-22)
(-0.00037332246 -0.00013741553 3.1339565e-18)
(-0.00012629433 -4.9505886e-05 -3.0573553e-18)
(0.00019953186 0.00012125076 2.9674104e-18)
(0.00062880893 0.00040192692 -2.8753856e-18)
(0.0011712715 0.0008024588 -2.7869075e-18)
(0.001805088 0.0013033231 -2.7038291e-18)
(0.0025153068 0.0018810868 2.6209252e-18)
(0.0032994711 0.0025150819 -2.5384279e-18)
(0.004082913 0.0031330767 2.4495232e-18)
(0.0047946149 0.0037071325 0)
(0.0055315547 0.0043297643 1.6777174e-23)
(0.006309266 0.0050225401 -1.6288058e-23)
(0.0072302262 0.0058758832 0)
(0.0083147462 0.0069243405 1.7679589e-18)
(0.010052209 0.008516159 6.244125e-24)
(0.012636112 0.010574175 0)
(0.01636842 0.013065229 0)
(0.021744916 0.015855093 0)
(0.029933478 0.018611595 7.4355164e-25)
(0.039598961 0.018511931 -7.8014079e-25)
(0.042816218 0.011946901 -1.4059373e-18)
(0.030763402 0.0038921661 -9.1772613e-19)
(0.020066038 0.00060189692 0)
(0.0077688786 -2.906911e-05 5.011438e-20)
(0.045887861 0.00015490648 0)
(0.040413057 -0.0011854284 -8.4880774e-20)
(0.042880283 -0.0052923489 -5.5324799e-19)
(0.0075466618 -0.0019534344 0)
(-0.016510722 0.0079360924 -8.7532614e-19)
(-0.01827536 0.011535815 7.1190221e-19)
(-0.010652761 0.0078610057 0)
(-0.0085101341 0.0068822754 -3.7756041e-19)
(-0.0066722865 0.0056522138 -5.2495298e-25)
(-0.0059074083 0.0050582951 5.3733839e-25)
(-0.0050079689 0.0042079406 1.3135376e-22)
(-0.0047184349 0.0038687664 1.4557854e-24)
(-0.0046659697 0.0037462366 -7.1316496e-25)
(-0.0048794505 0.0038523118 -8.9656128e-20)
(-0.0053408397 0.0041643757 1.3369469e-24)
(-0.0060083686 0.0046472773 -1.3699862e-24)
(-0.0066791018 0.0051231836 -9.1304223e-23)
(-0.0072639383 0.0054505305 -6.471545e-20)
(-0.0077817838 0.0056126414 -4.6126494e-20)
(-0.0081794634 0.0055539223 7.2490015e-25)
(-0.0083765969 0.0052156122 -7.3018239e-23)
(-0.0084362093 0.0046542063 1.9200978e-20)
(-0.0084234346 0.0039828684 8.3310028e-25)
(-0.0082953518 0.003240222 -4.3191501e-20)
(-0.0078232039 0.0023887361 0)
(-0.0073551356 0.0015974947 1.1745651e-23)
(-0.0063281067 0.00080750613 1.2484951e-21)
(-0.0071888001 0.00028534632 -4.5818859e-21)
(-0.011096137 3.3882095e-05 0)
(-0.014348632 2.5710173e-05 4.3748081e-24)
(-0.016608587 1.9922407e-05 -1.1972914e-25)
(-0.018557171 1.6623105e-05 -4.2537428e-24)
(-0.020132107 1.4015463e-05 0)
(-0.021503325 1.2157691e-05 0)
(-0.02268305 1.065137e-05 0)
(-0.023722409 9.3781227e-06 0)
(-0.024627389 8.219971e-06 1.986678e-24)
(-0.025413035 7.1199912e-06 -5.1505264e-24)
(-0.026079995 6.0432468e-06 3.1638092e-24)
(-0.026631881 4.9773829e-06 0)
(-0.027069577 3.9306484e-06 0)
(-0.027396232 2.9023511e-06 0)
(-0.027614353 1.906182e-06 0)
(-0.027728317 9.4488853e-07 0)
(-0.027742667 1.2175931e-08 1.4266135e-23)
(-0.027658803 -9.0059584e-07 -1.4266133e-23)
(-0.027480556 -1.7729374e-06 0)
(-0.027212948 -2.6019034e-06 1.0021269e-23)
(-0.026861256 -3.3778399e-06 -2.1037633e-23)
(-0.026431257 -4.1049268e-06 -1.1016473e-23)
(-0.025928351 -4.7738885e-06 0)
(-0.025359567 -5.3785564e-06 -1.4032735e-23)
(-0.024731856 -5.9186054e-06 1.4033435e-23)
(-0.024051657 -6.3987605e-06 8.0148928e-24)
(-0.023325845 -6.8148772e-06 -8.0153689e-24)
(-0.022560475 -7.1768571e-06 0)
(-0.021761592 -7.4757977e-06 -4.7344295e-24)
(-0.02093616 -7.7110769e-06 4.734759e-24)
(-0.02009071 -7.8926389e-06 0)
(-0.019229905 -8.034458e-06 0)
(-0.018357342 -8.1325831e-06 0)
(-0.017479002 -8.1811594e-06 0)
(-0.016598554 -8.1959504e-06 6.0567751e-24)
(-0.01572009 -8.1702014e-06 -6.0572362e-24)
(-0.014847065 -8.1202889e-06 0)
(-0.013981882 -8.0421385e-06 -1.3275414e-23)
(-0.013127383 -7.9429634e-06 1.3276408e-23)
(-0.012285674 -7.8181549e-06 -2.7976125e-23)
(-0.011459499 -7.6714457e-06 -6.7397548e-25)
(-0.010651078 -7.5011839e-06 2.8654182e-23)
(-0.0098625382 -7.3146224e-06 0)
(-0.0090955521 -7.1127958e-06 0)
(-0.0083511236 -6.9040479e-06 3.1123151e-23)
(-0.0076300806 -6.6854551e-06 3.2246575e-23)
(-0.0069332666 -6.4594196e-06 -6.3375672e-23)
(-0.0062618146 -6.219277e-06 6.5499982e-23)
(-0.005617158 -5.9710537e-06 -6.5503783e-23)
(-0.0049997243 -5.7123361e-06 0)
(-0.0044112199 -5.4458151e-06 0)
(-0.0038516655 -5.1672076e-06 -6.9307379e-23)
(-0.0033238014 -4.8710454e-06 0)
(-0.002828301 -4.551984e-06 0)
(-0.0023699672 -4.205551e-06 0)
(-0.0019488713 -3.8289108e-06 7.2593274e-23)
(-0.0015729233 -3.4110059e-06 -7.25959e-23)
(-0.0012412162 -2.9335315e-06 7.407307e-23)
(-0.00097022722 -2.3688496e-06 -7.4075159e-23)
(-0.00075823045 -1.6779751e-06 1.5093451e-22)
(-0.00064006794 -8.1644317e-07 -3.0321972e-22)
(-0.00060940561 3.37324e-07 1.5228298e-22)
(-0.0007479408 1.7741355e-06 0)
(-0.001016416 4.6655556e-06 1.5623984e-22)
(-0.001800176 -6.0612422e-05 -3.1431542e-22)
(-0.0020697547 -0.00026462531 1.4312105e-22)
(-0.0018433047 -0.00040402779 2.5762737e-18)
(-0.0015321915 -0.00047272555 2.5456196e-18)
(-0.00091248202 -0.00036251382 4.9910386e-18)
(-0.00016399797 -8.5323548e-05 -4.8694951e-18)
(0.0008197318 0.00044172376 -4.725415e-18)
(0.0021098434 0.0012991056 4.5792137e-18)
(0.0037323847 0.0025150713 1.3580107e-22)
(0.0056231095 0.0040310129 4.3049836e-18)
(0.0077389768 0.0057767117 -1.2336914e-22)
(0.010071706 0.0076895115 4.0411023e-18)
(0.01240549 0.0095554376 -3.8993223e-18)
(0.014539314 0.011295964 0)
(0.016746158 0.013183008 0)
(0.019075784 0.015283595 0)
(0.021819831 0.017864679 2.2946314e-23)
(0.025057256 0.021037885 -2.813638e-18)
(0.030184782 0.025821246 -1.109477e-23)
(0.03778761 0.031979247 2.0536519e-18)
(0.048752115 0.03940147 0)
(0.064518297 0.04766053 0)
(0.088282121 0.055665251 0)
(0.11615155 0.055117903 6.1268591e-24)
(0.12612908 0.035741097 -6.449932e-24)
(0.093723334 0.01204291 -5.1326456e-24)
(0.06286642 0.0020242105 3.104313e-19)
(0.027425397 -5.6859798e-05 -3.9842936e-20)
(0.07968202 0.00022091433 2.3311518e-20)
(0.071019971 -0.0020735807 9.1046851e-20)
(0.07370021 -0.0089418752 0)
(0.016010242 -0.0039342857 0)
(-0.026231875 0.012768788 -9.4417552e-19)
(-0.030600168 0.019295169 -7.6795881e-19)
(-0.018175672 0.013360839 0)
(-0.014508439 0.011709848 2.0309057e-19)
(-0.011413533 0.0096526329 -1.7258941e-19)
(-0.010105356 0.008642031 -8.9289687e-25)
(-0.0086009871 0.0072185458 -1.1084986e-19)
(-0.0081117383 0.006647859 8.2338628e-25)
(-0.0080326055 0.0064492764 0)
(-0.0084032962 0.0066378086 9.6342095e-20)
(-0.0091913871 0.007173384 9.655003e-20)
(-0.01032189 0.0079921055 0)
(-0.011456831 0.0087961259 8.3989508e-20)
(-0.012447355 0.0093472774 6.9523887e-20)
(-0.013323424 0.009615688 4.9551149e-20)
(-0.013999591 0.0095096501 2.617844e-20)
(-0.014347697 0.0089347329 0)
(-0.01447287 0.0079840135 -4.1106217e-20)
(-0.014480878 0.0068449484 -8.9123387e-25)
(-0.014300872 0.0055809468 4.6385912e-20)
(-0.013570149 0.0041361633 -1.4735685e-24)
(-0.012849276 0.0027809175 1.3318551e-23)
(-0.011287917 0.001439203 -2.6959294e-21)
(-0.012876801 0.000540465 3.2519905e-24)
(-0.019389276 0.00010405057 -3.2457639e-24)
(-0.024827466 7.9389498e-05 0)
(-0.028620536 6.1167986e-05 0)
(-0.031875508 5.0911554e-05 0)
(-0.034507862 4.2706165e-05 0)
(-0.036793781 3.6890517e-05 0)
(-0.038757755 3.2129066e-05 0)
(-0.040482968 2.8117999e-05 0)
(-0.041980735 2.4457835e-05 0)
(-0.043275638 2.0998103e-05 -3.3932144e-24)
(-0.044369488 1.7617916e-05 3.3928989e-24)
(-0.045268509 1.429099e-05 0)
(-0.045974708 1.103254e-05 0)
(-0.046493614 7.8487986e-06 0)
(-0.046829846 4.7724722e-06 0)
(-0.046991044 1.8197906e-06 0)
(-0.046985047 -1.0407365e-06 0)
(-0.046814136 -3.8290877e-06 0)
(-0.046485167 -6.4856807e-06 1.9380539e-23)
(-0.046006726 -8.9977834e-06 -1.9381021e-23)
(-0.045387811 -1.1344541e-05 1.180963e-23)
(-0.044638232 -1.3533121e-05 -1.0749757e-24)
(-0.043767166 -1.5540064e-05 1.2886153e-23)
(-0.042786469 -1.7345239e-05 0)
(-0.041707765 -1.8952638e-05 0)
(-0.040541898 -2.037192e-05 1.7187323e-23)
(-0.03930035 -2.1598103e-05 -1.7189273e-23)
(-0.037993284 -2.2654832e-05 -9.6422528e-24)
(-0.036630816 -2.3520158e-05 9.6434991e-24)
(-0.035224523 -2.4191435e-05 0)
(-0.033785309 -2.4700013e-05 2.7871296e-24)
(-0.032320983 -2.5088186e-05 -2.7875303e-24)
(-0.030837556 -2.5341812e-05 -3.0243081e-24)
(-0.029344959 -2.5449554e-05 3.0247596e-24)
(-0.027849356 -2.5452098e-05 0)
(-0.026357548 -2.5337954e-05 1.3425755e-23)
(-0.024875288 -2.5145864e-05 -1.3427784e-23)
(-0.023406632 -2.4872435e-05 0)
(-0.02195632 -2.4533294e-05 2.9271424e-23)
(-0.020527915 -2.4119803e-05 -5.9300973e-23)
(-0.019125992 -2.3638197e-05 3.0029598e-23)
(-0.017754273 -2.3089754e-05 -3.1455194e-23)
(-0.016416311 -2.2489753e-05 6.3592023e-23)
(-0.015114902 -2.1847789e-05 -3.2136816e-23)
(-0.013851753 -2.1182796e-05 -6.6829108e-23)
(-0.012628283 -2.0490851e-05 1.3487973e-22)
(-0.01144595 -1.977402e-05 -6.805049e-23)
(-0.010306682 -1.9016723e-05 0)
(-0.0092128907 -1.8234328e-05 0)
(-0.0081653758 -1.7420706e-05 0)
(-0.0071669978 -1.6581986e-05 7.3471534e-23)
(-0.0062179371 -1.5705554e-05 9.6225002e-25)
(-0.0053228146 -1.4775481e-05 -7.5376288e-23)
(-0.0044828983 -1.3773082e-05 -8.9399558e-25)
(-0.0037062157 -1.2689226e-05 -8.6252552e-25)
(-0.0029930861 -1.150545e-05 7.7153224e-23)
(-0.00235669 -1.0199818e-05 0)
(-0.0017959138 -8.6984033e-06 -1.5916377e-22)
(-0.0013382169 -6.9401182e-06 1.5917383e-22)
(-0.00098150636 -4.7649591e-06 1.6217048e-22)
(-0.00078371197 -2.0878331e-06 -1.6217775e-22)
(-0.00073589987 1.5452873e-06 0)
(-0.00097335301 6.0207352e-06 0)
(-0.001439193 1.5048488e-05 1.6916911e-22)
(-0.00275345 -8.4679548e-05 -1.6804489e-22)
(-0.0032012928 -0.00040938473 -1.8641258e-22)
(-0.0028162837 -0.00062198068 -1.7127786e-24)
(-0.0022818904 -0.00071273022 1.6603794e-22)
(-0.0012317955 -0.00050290356 -1.0725612e-17)
(3.7745904e-05 -1.0368847e-05 -4.5111891e-22)
(0.0017036744 0.00090232646 0)
(0.0038838545 0.002368346 2.7258403e-22)
(0.0066193274 0.0044320665 -4.7675634e-18)
(0.0098034908 0.0069956473 -1.4075698e-22)
(0.01336557 0.0099419211 -4.4818159e-18)
(0.017289482 0.013164939 6.636624e-23)
(0.02121949 0.016312153 -4.1864147e-18)
(0.024831542 0.019261906 -6.1792772e-23)
(0.028565466 0.022457031 -3.8170053e-18)
(0.032509832 0.02601445 -5.5643968e-23)
(0.037139486 0.030370798 0)
(0.042612564 0.035727874 3.0167979e-18)
(0.051205856 0.043731717 2.668704e-18)
(0.063903804 0.053982877 -4.4026647e-18)
(0.082164302 0.066271561 1.6111635e-18)
(0.10832476 0.079835398 7.5105792e-19)
(0.14731467 0.092664635 0)
(0.19261582 0.091265213 -6.5645035e-24)
(0.2096437 0.059527648 6.9099654e-24)
(0.16023588 0.020861915 -5.4834356e-24)
(0.11008789 0.003806304 -3.3209031e-19)
(0.05252064 -3.3221394e-05 0)
(0.11652552 0.00026919488 -4.9909244e-20)
(0.10501878 -0.0030453405 -3.9264144e-24)
(0.10663631 -0.01271071 3.901052e-24)
(0.027612313 -0.0065470795 -8.4373133e-19)
(-0.034686146 0.017131114 1.0128923e-18)
(-0.043029728 0.027091313 4.1326005e-19)
(-0.02607565 0.019084226 3.3504726e-19)
(-0.020804238 0.016748566 -2.5289665e-25)
(-0.016423777 0.013861028 1.8543936e-19)
(-0.014542258 0.012416071 -1.3666833e-19)
(-0.012428116 0.010415863 -1.3999767e-25)
(-0.011733486 0.0096100258 1.0847143e-19)
(-0.011635401 0.0093414242 0)
(-0.012177053 0.0096236536 0)
(-0.01330937 0.010396926 -1.0372982e-19)
(-0.014919216 0.011563603 -2.8907404e-24)
(-0.016533784 0.012704834 2.959715e-24)
(-0.017944219 0.013484088 1.9378058e-24)
(-0.019190187 0.013856512 -5.3626308e-20)
(-0.020156933 0.013695391 -2.8113384e-20)
(-0.020673967 0.012874027 -7.6959415e-25)
(-0.020888753 0.011521189 2.1994047e-20)
(-0.020945483 0.0098970591 -3.9848473e-20)
(-0.020745873 0.0080888385 -4.968237e-20)
(-0.019810603 0.0060285977 -2.6198054e-20)
(-0.018895544 0.0040771029 -3.1818465e-20)
(-0.016942274 0.0021614893 -1.4853578e-21)
(-0.019396508 0.00085679469 -2.2921615e-24)
(-0.028507796 0.00021828262 3.4437432e-24)
(-0.036144353 0.00016736062 0)
(-0.041490786 0.0001287194 0)
(-0.046056157 0.00010709137 0)
(-0.049750009 8.9722286e-05 0)
(-0.052948797 7.7431998e-05 0)
(-0.055692697 6.7322544e-05 0)
(-0.058095223 5.8810073e-05 0)
(-0.060174155 5.1024598e-05 0)
(-0.061963203 4.3674169e-05 0)
(-0.063466001 3.6494865e-05 0)
(-0.064691578 2.9442629e-05 6.7378798e-24)
(-0.065643553 2.2539727e-05 -6.7371671e-24)
(-0.066330095 1.5807114e-05 0)
(-0.066758332 9.3056576e-06 0)
(-0.066939479 3.0752106e-06 0)
(-0.066884697 -2.963341e-06 0)
(-0.066597216 -8.8425299e-06 -1.8533816e-23)
(-0.066087468 -1.4438379e-05 1.8533546e-23)
(-0.065367809 -1.9722481e-05 0)
(-0.06445113 -2.4657953e-05 0)
(-0.063351441 -2.9254019e-05 0)
(-0.062081844 -3.3466311e-05 0)
(-0.060659145 -3.7252672e-05 0)
(-0.059099669 -4.0624233e-05 0)
(-0.05741875 -4.3595845e-05 0)
(-0.055632493 -4.6165907e-05 0)
(-0.053755228 -4.8375365e-05 0)
(-0.051801155 -5.0184232e-05 1.0873915e-23)
(-0.049786433 -5.1585623e-05 -1.0876338e-23)
(-0.047726348 -5.2644661e-05 0)
(-0.045631882 -5.3451531e-05 0)
(-0.043511453 -5.3973299e-05 0)
(-0.041378913 -5.4192719e-05 0)
(-0.039242953 -5.4186204e-05 -1.392496e-23)
(-0.037113058 -5.3939318e-05 2.8315596e-23)
(-0.034997272 -5.3524647e-05 -1.4390769e-23)
(-0.032901345 -5.2942112e-05 0)
(-0.030831911 -5.2216505e-05 0)
(-0.028794038 -5.1336407e-05 3.2189061e-23)
(-0.026794127 -5.0310791e-05 -3.219728e-23)
(-0.024837421 -4.9147186e-05 0)
(-0.022928901 -4.7872525e-05 0)
(-0.021072495 -4.6510885e-05 0)
(-0.019270642 -4.5097956e-05 0)
(-0.017525388 -4.3628905e-05 0)
(-0.015838849 -4.2103787e-05 0)
(-0.01421379 -4.0495193e-05 0)
(-0.012653618 -3.8830282e-05 0)
(-0.011159586 -3.7099406e-05 0)
(-0.0097357246 -3.5312727e-05 -7.8854487e-23)
(-0.0083825085 -3.344389e-05 7.8869692e-23)
(-0.0071064905 -3.1460839e-05 0)
(-0.0059096664 -2.932095e-05 0)
(-0.0048033062 -2.7011594e-05 0)
(-0.0037881622 -2.4483678e-05 0)
(-0.0028826745 -2.1702646e-05 0)
(-0.0020858957 -1.8492942e-05 1.7092157e-22)
(-0.0014362419 -1.4751627e-05 -1.7094429e-22)
(-0.0009319915 -1.0100563e-05 0)
(-0.00065396995 -4.4132883e-06 0)
(-0.00059218185 3.3468004e-06 0)
(-0.00093450499 1.2882594e-05 0)
(-0.0016142625 3.1991485e-05 -1.8169849e-22)
(-0.0034648854 -9.3264043e-05 3.713308e-19)
(-0.0040889269 -0.00052240111 2.9884905e-18)
(-0.0035386667 -0.00078807405 -1.8063186e-22)
(-0.0027670513 -0.00087709016 -1.80239e-22)
(-0.0012718919 -0.0005422343 1.1521622e-17)
(0.00053746733 0.00019464937 -1.5652975e-22)
(0.0029079096 0.0015245783 -5.4540906e-18)
(0.00600352 0.0036323354 1.4520171e-22)
(0.0098784493 0.0065757608 5.1192507e-18)
(0.014384385 0.010217989 -1.5154438e-22)
(0.019423721 0.014395007 2.9324177e-22)
(0.024970647 0.018956578 -1.4245127e-22)
(0.03053336 0.023416028 4.4929903e-18)
(0.035673987 0.027617022 -6.6301442e-23)
(0.040985637 0.032163 4.0959254e-18)
(0.046600361 0.037225128 5.7502541e-23)
(0.053166442 0.043401346 -8.2059861e-23)
(0.060942737 0.050996059 -2.0737075e-21)
(0.073040622 0.062233851 -2.8614606e-18)
(0.090849706 0.076544166 2.3568904e-18)
(0.1163763 0.093592627 -3.4440632e-18)
(0.15278585 0.1122335 -8.0299714e-19)
(0.20639574 0.12938239 4.8625714e-19)
(0.26812173 0.12671698 -2.5812286e-18)
(0.29259619 0.083172407 -2.5490162e-18)
(0.23001788 0.03031113 1.6549231e-18)
(0.16195795 0.0059701118 3.53985e-19)
(0.08379588 5.3263602e-05 5.5068271e-24)
(0.15677849 0.00031541498 2.660571e-20)
(0.14271819 -0.0041010673 4.1878837e-24)
(0.14188331 -0.016604357 -4.1577752e-24)
(0.042754804 -0.0098581696 9.0085071e-19)
(-0.041450171 0.020874965 2.6662278e-24)
(-0.055444325 0.034867329 3.8868577e-25)
(-0.034338525 0.025018717 -7.2010881e-19)
(-0.027393781 0.02199367 2.3626305e-19)
(-0.021707256 0.018279795 2.0004798e-19)
(-0.0192231 0.01638416 2.94047e-19)
(-0.016499877 0.013808133 0)
(-0.015596056 0.012765337 -1.1655237e-19)
(-0.015488846 0.012434631 1.1196963e-19)
(-0.016216593 0.012823113 -1.112759e-19)
(-0.017710911 0.013848733 3.3194771e-24)
(-0.019815013 0.01537463 -3.4005474e-24)
(-0.021922832 0.016860853 0)
(-0.023765942 0.017871227 0)
(-0.0253922 0.018344087 5.7575351e-20)
(-0.026661442 0.018119431 -1.3836951e-24)
(-0.027367769 0.017042429 5.046604e-25)
(-0.027700999 0.015276138 0)
(-0.027840845 0.013151012 8.539215e-20)
(-0.027662473 0.010776856 1.0653125e-19)
(-0.026591041 0.0080804585 2.8108371e-20)
(-0.025557525 0.0055006829 -1.1089402e-23)
(-0.023386418 0.0029891133 3.1525434e-21)
(-0.02685101 0.0012430797 3.734877e-24)
(-0.038525326 0.00038202445 1.342125e-24)
(-0.048353468 0.00029406189 3.9153964e-25)
(-0.055258836 0.00022591969 -1.0601204e-23)
(-0.061124998 0.00018776789 5.2232386e-24)
(-0.065872487 0.00015714636 0)
(-0.069971081 0.00013544827 0)
(-0.073479994 0.00011755532 0)
(-0.076541045 0.00010247318 0)
(-0.079179618 8.8662873e-05 -4.8811782e-24)
(-0.081438103 7.5631972e-05 1.2645758e-23)
(-0.083322684 6.2915323e-05 3.1786221e-24)
(-0.084845446 5.0445057e-05 -1.093893e-23)
(-0.086012171 3.82514e-05 -1.8088345e-23)
(-0.086833974 2.6377216e-05 -3.9316575e-24)
(-0.087320931 1.4922343e-05 2.2012501e-23)
(-0.087488186 3.9572171e-06 0)
(-0.087349843 -6.6725713e-06 0)
(-0.086910584 -1.7007293e-05 0)
(-0.086185028 -2.682939e-05 2.2131136e-23)
(-0.085189496 -3.6092689e-05 -2.2129637e-23)
(-0.083940947 -4.4740067e-05 2.6966753e-23)
(-0.082457743 -5.2783253e-05 2.6967667e-23)
(-0.080757026 -6.0148186e-05 0)
(-0.078860647 -6.6762475e-05 1.7177219e-23)
(-0.076789609 -7.2651921e-05 1.2261227e-24)
(-0.074563776 -7.7835747e-05 1.2167296e-24)
(-0.072203842 -8.2316341e-05 -4.0466896e-23)
(-0.069728317 -8.6160576e-05 2.0841036e-23)
(-0.067155448 -8.9307273e-05 1.160097e-23)
(-0.064505868 -9.1740525e-05 -5.5162061e-24)
(-0.061799206 -9.3573185e-05 -2.9053458e-24)
(-0.059049611 -9.4965027e-05 -3.1867084e-24)
(-0.056267866 -9.5856417e-05 -3.458237e-24)
(-0.05347166 -9.6222111e-05 3.4596466e-24)
(-0.050672209 -9.6188022e-05 0)
(-0.047881626 -9.5738603e-05 0)
(-0.045110205 -9.49902e-05 3.1691072e-23)
(-0.042365416 -9.3949141e-05 -3.170491e-23)
(-0.039655761 -9.2653601e-05 -3.3526698e-23)
(-0.036987849 -9.1089545e-05 3.3541452e-23)
(-0.034369882 -8.9267456e-05 0)
(-0.031808628 -8.7205433e-05 7.211924e-23)
(-0.029310482 -8.4946441e-05 -1.4584404e-22)
(-0.026880499 -8.2536987e-05 7.3725092e-23)
(-0.024521878 -8.0032581e-05 7.6678459e-23)
(-0.022237327 -7.7429809e-05 -1.5480253e-22)
(-0.02002967 -7.4723978e-05 1.5757969e-22)
(-0.017902548 -7.1872444e-05 -1.6025773e-22)
(-0.015860374 -6.8918985e-05 8.0801966e-23)
(-0.01390495 -6.5847442e-05 0)
(-0.012041484 -6.2673377e-05 0)
(-0.010270904 -5.9350131e-05 0)
(-0.0086017415 -5.5823045e-05 -1.7334676e-22)
(-0.007036871 -5.201524e-05 1.7340689e-22)
(-0.0055907962 -4.7909167e-05 -1.7750719e-22)
(-0.0042649189 -4.3408889e-05 -1.9162254e-24)
(-0.0030828719 -3.846406e-05 1.7953821e-22)
(-0.0020443226 -3.274772e-05 0)
(-0.0011984918 -2.6099783e-05 0)
(-0.00054492444 -1.7817866e-05 0)
(-0.00018683826 -7.7233566e-06 -1.8851329e-22)
(-0.00011507925 6.0721651e-06 3.7874072e-22)
(-0.0005682751 2.3065531e-05 -1.9019373e-22)
(-0.001479304 5.6665966e-05 1.5051399e-24)
(-0.0038671689 -8.3033017e-05 -3.9825248e-19)
(-0.0046626901 -0.00059511011 -1.6034554e-18)
(-0.0039407156 -0.00088840305 3.1901675e-18)
(-0.002917537 -0.00094645285 -2.0346892e-24)
(-0.00096441501 -0.00045663463 5.1304226e-22)
(0.0014010742 0.00055732196 6.0296977e-18)
(0.0044948155 0.0023385471 5.8497413e-18)
(0.0085256759 0.0051214716 6.980145e-22)
(0.013558767 0.0089741695 1.0986513e-24)
(0.01940549 0.013721508 -1.6199355e-22)
(0.025942745 0.019153259 5.155616e-18)
(0.033133244 0.025074407 -1.5263612e-22)
(0.040355475 0.030870704 -4.8126458e-18)
(0.047068868 0.036360982 -4.6136653e-18)
(0.054002387 0.042296267 -6.7720183e-23)
(0.061335889 0.048905887 -6.1573805e-23)
(0.06987813 0.05693816 5.9589176e-23)
(0.080009475 0.066811126 -6.9229496e-18)
(0.095614543 0.081266445 0)
(0.11848873 0.099552797 -2.5100305e-18)
(0.15114971 0.12118113 1.8349232e-18)
(0.19748969 0.1445655 0)
(0.26482402 0.16540166 -5.1607133e-19)
(0.34170304 0.16104152 2.7341359e-18)
(0.37407226 0.10642007 2.7003037e-18)
(0.30245312 0.040307401 -1.7505325e-18)
(0.21848778 0.0085254227 -1.9605106e-22)
(0.12185185 0.00022038684 -5.8651156e-24)
(0.20072103 0.00037844685 0)
(0.184293 -0.0052353922 -1.0991547e-19)
(0.17961547 -0.020621215 0)
(0.061755212 -0.013908988 9.5884729e-19)
(-0.046000488 0.023807942 -1.5739368e-24)
(-0.06770824 0.042555965 1.5110073e-24)
(-0.042941802 0.031143814 7.7437181e-19)
(-0.034270615 0.02743571 -2.5367814e-19)
(-0.027266737 0.022908446 -4.3020726e-19)
(-0.024152249 0.020548145 4.3315188e-22)
(-0.02082666 0.017402782 0)
(-0.019712103 0.016123702 0)
(-0.019607824 0.015741049 -1.2028142e-19)
(-0.02053811 0.016249752 1.1951415e-19)
(-0.022412163 0.017542631 1.1972876e-19)
(-0.025023562 0.019437688 1.1677651e-19)
(-0.027636062 0.02127487 0)
(-0.029922814 0.022517686 -8.6880714e-20)
(-0.031938263 0.023085862 6.2340883e-20)
(-0.03352178 0.022788574 3.3277385e-20)
(-0.034440405 0.021447746 -5.5079809e-25)
(-0.034926179 0.019258684 0)
(-0.035190837 0.016618686 -4.5708509e-20)
(-0.035084534 0.013658811 -1.2508878e-22)
(-0.033961304 0.010307635 3.6281891e-24)
(-0.032905026 0.0070684588 3.6605678e-20)
(-0.030721649 0.0039386158 2.732438e-24)
(-0.035341951 0.0017086772 -6.0380777e-21)
(-0.049508092 0.00060121148 -7.8359863e-26)
(-0.061495517 0.00046441985 5.7363237e-24)
(-0.069944035 0.00035649412 -5.7293666e-24)
(-0.077082142 0.0002958534 0)
(-0.082857812 0.00024732257 0)
(-0.087826588 0.00021282653 0)
(-0.092069763 0.00018433823 -5.8718259e-26)
(-0.095755252 0.00016028041 5.8652159e-26)
(-0.098917139 0.00013823884 0)
(-0.10160608 0.00011744874 -8.2494777e-24)
(-0.10383163 9.7185914e-05 -3.3732799e-24)
(-0.10560928 7.7349432e-05 1.1605671e-23)
(-0.10694764 5.797889e-05 0)
(-0.10786115 3.9146886e-05 0)
(-0.10836334 2.1004195e-05 0)
(-0.10847374 3.6487092e-06 0)
(-0.10820824 -1.3175597e-05 0)
(-0.10757453 -2.9500303e-05 0)
(-0.10659187 -4.4987363e-05 0)
(-0.10528073 -5.9574214e-05 2.5940239e-23)
(-0.10366231 -7.3180136e-05 -2.593338e-23)
(-0.10175943 -8.581795e-05 2.8501772e-23)
(-0.099593362 -9.7377646e-05 0)
(-0.097191007 -0.00010774901 0)
(-0.094577951 -0.00011697684 -1.9446869e-23)
(-0.091778543 -0.00012508787 1.9450631e-23)
(-0.088817939 -0.00013209472 0)
(-0.085718783 -0.00013809484 0)
(-0.082503223 -0.00014299908 0)
(-0.079196147 -0.00014678199 1.2869813e-23)
(-0.07582137 -0.00014962065 -6.1421326e-24)
(-0.072396149 -0.00015176572 -6.7382055e-24)
(-0.068933556 -0.00015312237 -7.3139647e-24)
(-0.065454924 -0.00015365684 -7.8679547e-24)
(-0.061973938 -0.0001535586 1.5197066e-23)
(-0.058505222 -0.00015281312 0)
(-0.055061222 -0.00015159212 3.3548867e-23)
(-0.051651126 -0.00014991334 -3.357399e-23)
(-0.048285243 -0.00014782892 3.5514678e-23)
(-0.044971727 -0.00014532276 3.7361966e-23)
(-0.041720529 -0.00014240781 -1.4768043e-22)
(-0.038539913 -0.00013911765 7.4778101e-23)
(-0.035437653 -0.00013551482 7.8171999e-23)
(-0.032419911 -0.00013167588 -7.823388e-23)
(-0.029490661 -0.00012768286 -8.1397631e-23)
(-0.026653309 -0.00012353317 1.6439029e-22)
(-0.02391144 -0.00011921497 -8.299342e-23)
(-0.021269605 -0.00011466711 0)
(-0.018733234 -0.00010995276 0)
(-0.016304777 -0.00010504921 -1.7709851e-22)
(-0.013990625 -9.9976719e-05 3.5690526e-22)
(-0.011792344 -9.4660443e-05 -1.7980713e-22)
(-0.009720485 -8.9016183e-05 -3.6686364e-22)
(-0.0077789686 -8.2920708e-05 3.7159432e-22)
(-0.0059854921 -7.6350537e-05 -1.8702734e-22)
(-0.004342359 -6.9146174e-05 -1.9132045e-22)
(-0.0028782547 -6.1233757e-05 3.8489039e-22)
(-0.0015940004 -5.207994e-05 -1.9357232e-22)
(-0.00054929879 -4.144477e-05 0)
(0.00025395698 -2.8187546e-05 0)
(0.00069107574 -1.2052791e-05 -2.0134643e-22)
(0.00076800827 9.9845438e-06 2.014811e-22)
(0.00019832443 3.7273744e-05 0)
(-0.00096142961 9.0273138e-05 4.106888e-22)
(-0.0038805402 -5.0163405e-05 3.9471493e-24)
(-0.0048395931 -0.00061715921 -1.7160663e-18)
(-0.0039402229 -0.0009060625 -3.4140329e-18)
(-0.0026513224 -0.00089739752 4.0939391e-22)
(-0.00023053145 -0.00021754446 -1.3221072e-17)
(0.002703095 0.0011100111 6.447491e-18)
(0.0065334884 0.0033787205 3.8369328e-22)
(0.011511262 0.0068692901 3.4835472e-23)
(0.017710388 0.011656298 5.8637146e-18)
(0.024904318 0.017527806 5.6833227e-18)
(0.032946304 0.024228737 -2.1650971e-22)
(0.041786087 0.031519501 0)
(0.05068181 0.038667618 5.1357523e-18)
(0.059003078 0.045478252 8.9964396e-22)
(0.067593556 0.052834063 7.423884e-23)
(0.076684191 0.061025453 -4.3955907e-18)
(0.087228009 0.070937259 0)
(0.09974473 0.083108952 3.6901858e-18)
(0.11881347 0.10072327 -3.2502907e-18)
(0.14662698 0.12283481 -2.6689329e-18)
(0.18615757 0.14876168 1.3494947e-24)
(0.24187775 0.1764094 8.750605e-19)
(0.3216732 0.2001336 0)
(0.4120944 0.19363375 -2.8742227e-18)
(0.45278959 0.1288916 -2.8199631e-18)
(0.37640754 0.050697326 -1.8241653e-18)
(0.27929619 0.011465737 -3.940718e-19)
(0.16695639 0.00048930364 0)
(0.24828697 0.0004794595 -2.644798e-24)
(0.22954222 -0.0064293334 1.1400338e-19)
(0.21985571 -0.024738041 -7.4435076e-19)
(0.08484533 -0.018717421 -1.0118703e-18)
(-0.047759879 0.025716758 -1.2513957e-18)
(-0.079667753 0.05008323 5.2131788e-19)
(-0.051852139 0.037430645 -4.1561956e-19)
(-0.041424327 0.033060546 0)
(-0.03310263 0.027743463 2.3121334e-19)
(-0.029332894 0.02490802 -1.7028018e-19)
(-0.025418283 0.021206335 -2.128459e-24)
(-0.024094241 0.019694775 2.2056714e-24)
(-0.024007285 0.019272859 0)
(-0.025157724 0.019917154 1.2838809e-19)
(-0.027428751 0.021492132 -2.5706438e-19)
(-0.030558023 0.023764427 -1.2531359e-19)
(-0.033683849 0.025956157 1.1238315e-19)
(-0.036422874 0.027430566 9.3179516e-20)
(-0.038834534 0.028087107 -6.6840875e-20)
(-0.040743798 0.027707454 -3.5668091e-20)
(-0.041900354 0.026095872 1.8627939e-21)