/*--------------------------------*- C++ -*----------------------------------*\
| =========                 |                                                 |
| \\      /  F ield         | OpenFOAM: The Open Source CFD Toolbox           |
|  \\    /   O peration     | Version:  2.4.0                                 |
|   \\  /    A nd           | Web:      www.OpenFOAM.org                      |
|    \\/     M anipulation  |                                                 |
\*---------------------------------------------------------------------------*/
FoamFile
{
    version     2.0;
    format      ascii;
    class       volScalarField;
    location    "20000";
    object      nut;
}
// * * * * * * * * * * * * * * * * * * * * * * * * * * * * * * * * * * * * * //

dimensions      [0 2 -1 0 0 0 0];

internalField   nonuniform List<scalar> 
32000
(
4.9451757e-11
2.327536e-11
6.388062e-11
3.0790563e-11
1.7415176e-11
2.9918142e-13
3.7826261e-12
7.1938552e-12
4.2319969e-12
2.4953408e-12
1.460453e-12
1.0925757e-12
9.0535663e-13
7.8521362e-13
6.8806173e-13
5.9744887e-13
5.1617629e-13
4.6934933e-13
4.5007919e-13
4.4634993e-13
4.653182e-13
5.0476015e-13
5.7061402e-13
6.6932873e-13
8.0357342e-13
9.8121798e-13
1.1905362e-12
1.412767e-12
1.6477897e-12
1.8947245e-12
2.1422918e-12
2.3801928e-12
2.5929843e-12
2.763045e-12
2.8772236e-12
2.9447655e-12
3.0041511e-12
3.0345428e-12
3.0045804e-12
2.9022975e-12
2.7407062e-12
2.4839395e-12
2.2297655e-12
1.8884318e-12
1.7689466e-12
1.5768033e-12
2.7893594e-12
5.3603004e-12
7.3388489e-12
9.7238261e-12
1.1796613e-11
1.3952559e-11
1.5917402e-11
1.7858763e-11
1.967915e-11
2.1449121e-11
2.3134434e-11
2.4763762e-11
2.6323618e-11
2.7823904e-11
2.9257286e-11
3.0625144e-11
3.1921675e-11
3.314443e-11
3.4288079e-11
3.5348565e-11
3.6320938e-11
3.7201581e-11
3.7987344e-11
3.8676151e-11
3.9266366e-11
3.9757073e-11
4.0147862e-11
4.0439034e-11
4.0631609e-11
4.0727144e-11
4.0725489e-11
4.0627899e-11
4.0437076e-11
4.01565e-11
3.9789852e-11
3.934103e-11
3.8815026e-11
3.8216296e-11
3.7549367e-11
3.6820262e-11
3.6033643e-11
3.5194781e-11
3.4309939e-11
3.3384119e-11
3.242323e-11
3.1432624e-11
3.0417109e-11
2.9382683e-11
2.8333965e-11
2.7275184e-11
2.6211638e-11
2.5147134e-11
2.4085352e-11
2.3031551e-11
2.1988878e-11
2.0958983e-11
1.9945659e-11
1.895146e-11
1.7978265e-11
1.7028638e-11
1.6104059e-11
1.5205731e-11
1.4335274e-11
1.3493462e-11
1.268101e-11
1.1898733e-11
1.1146923e-11
1.0426175e-11
9.7366487e-12
9.0782883e-12
8.4511777e-12
7.8549885e-12
7.2892268e-12
6.753515e-12
6.2471719e-12
5.769378e-12
5.3194718e-12
4.8967278e-12
4.5002003e-12
4.1292526e-12
3.7827797e-12
3.459994e-12
3.1598683e-12
2.8815395e-12
2.6238063e-12
2.3859715e-12
2.166612e-12
1.9654429e-12
1.7806318e-12
1.6123147e-12
1.458249e-12
1.319237e-12
1.1923273e-12
1.0792874e-12
9.760328e-13
8.8596088e-13
8.030725e-13
7.3335971e-13
6.6783122e-13
6.1659856e-13
5.6588179e-13
5.3249033e-13
4.9478465e-13
4.8079703e-13
4.560825e-13
4.6801653e-13
4.5930567e-13
5.0914095e-13
5.9170696e-13
6.0361171e-13
6.2353691e-13
5.8879507e-13
5.5081407e-13
4.8318244e-13
4.1479226e-13
3.3594878e-13
2.6321693e-13
1.9528531e-13
2.4357845e-13
3.6236674e-13
5.533936e-13
8.3928909e-13
1.2472883e-12
1.7975472e-12
2.5155428e-12
3.404456e-12
4.4836621e-12
5.6912683e-12
6.9528276e-12
8.1897835e-12
9.494387e-12
1.0953277e-11
1.2503871e-11
1.4260906e-11
1.6242255e-11
1.8636056e-11
2.1520707e-11
2.5718033e-11
3.2032983e-11
4.0555196e-11
5.227419e-11
6.8482739e-11
9.2272778e-11
1.2656667e-10
1.7965442e-10
2.5114524e-10
3.4545567e-10
3.9368071e-10
3.4624373e-10
2.2454664e-10
1.3670313e-10
5.5453183e-11
4.3584045e-11
8.5774926e-12
1.4675183e-10
1.3623538e-10
1.6199059e-10
1.0777573e-10
6.3131978e-11
1.9019773e-11
7.6227999e-12
7.4102027e-12
4.3186342e-12
2.6405582e-12
1.6136665e-12
1.2328258e-12
1.0407793e-12
9.2235507e-13
8.3069098e-13
7.4762566e-13
6.7370287e-13
6.3988389e-13
6.3815039e-13
6.5805827e-13
7.0692377e-13
7.8429197e-13
8.9789045e-13
1.0582539e-12
1.2717436e-12
1.5506539e-12
1.8849782e-12
2.2531929e-12
2.6486762e-12
3.0280309e-12
3.3801211e-12
3.8710364e-12
4.3946586e-12
4.9380143e-12
5.4929569e-12
6.0700289e-12
6.7102314e-12
7.3956481e-12
8.0766557e-12
8.7092199e-12
9.2661037e-12
9.653799e-12
9.9023169e-12
9.8628307e-12
9.8581959e-12
9.7116284e-12
1.145603e-11
1.7017614e-11
2.1475248e-11
2.6289345e-11
3.0755871e-11
3.5204695e-11
3.950787e-11
4.3705738e-11
4.782851e-11
5.1863407e-11
5.5845671e-11
5.9763542e-11
6.3633321e-11
6.7446798e-11
7.120484e-11
7.490059e-11
7.8527417e-11
8.2076424e-11
8.5538461e-11
8.8903148e-11
9.2160148e-11
9.529981e-11
9.8313488e-11
1.0119353e-10
1.0393304e-10
1.0652575e-10
1.0896592e-10
1.1124925e-10
1.1337276e-10
1.153348e-10
1.1713088e-10
1.187579e-10
1.202158e-10
1.2150512e-10
1.2262688e-10
1.2358312e-10
1.2437646e-10
1.2501038e-10
1.2548742e-10
1.258132e-10
1.2599231e-10
1.2602959e-10
1.2593199e-10
1.2570514e-10
1.253558e-10
1.2489107e-10
1.2431682e-10
1.2364187e-10
1.2287468e-10
1.2201215e-10
1.2107014e-10
1.2004972e-10
1.1895398e-10
1.17807e-10
1.1662645e-10
1.1538268e-10
1.1409062e-10
1.1276426e-10
1.1140384e-10
1.1001608e-10
1.0860533e-10
1.0717454e-10
1.0572789e-10
1.0426842e-10
1.0279676e-10
1.0131825e-10
9.9832581e-11
9.8343356e-11
9.6853071e-11
9.5363893e-11
9.3878636e-11
9.2399153e-11
9.0926752e-11
8.9462942e-11
8.8008411e-11
8.6562513e-11
8.5124957e-11
8.3695878e-11
8.2274511e-11
8.0862077e-11
7.9457772e-11
7.8060867e-11
7.6671614e-11
7.5288981e-11
7.3911271e-11
7.2537698e-11
7.1164143e-11
6.9791165e-11
6.8413773e-11
6.7032393e-11
6.5639846e-11
6.4239107e-11
6.2818725e-11
6.1385261e-11
5.9919236e-11
5.843328e-11
5.6894859e-11
5.5326707e-11
5.3674242e-11
5.1979846e-11
5.0154162e-11
4.8270951e-11
4.6187199e-11
4.4022301e-11
4.1560033e-11
3.8951052e-11
3.5757186e-11
3.2116854e-11
3.1861868e-11
3.2542598e-11
3.3460235e-11
3.4336224e-11
3.5039647e-11
3.5546444e-11
3.5867557e-11
3.6049754e-11
3.6122514e-11
3.6137888e-11
3.6286593e-11
3.6675292e-11
3.7236517e-11
3.7923964e-11
3.8735978e-11
3.9705831e-11
4.081923e-11
4.2085353e-11
4.357782e-11
4.4901793e-11
4.5887343e-11
4.645017e-11
4.7165257e-11
4.8027208e-11
4.8971067e-11
5.0149978e-11
5.161496e-11
5.3679305e-11
5.6250761e-11
6.1233055e-11
6.9552511e-11
8.0816973e-11
9.6093774e-11
1.1775403e-10
1.4966346e-10
2.0233301e-10
2.8684624e-10
3.8937883e-10
5.1225362e-10
5.7909555e-10
5.2596194e-10
3.5591463e-10
2.4364484e-10
1.5410163e-10
1.2298048e-10
9.7880945e-11
2.4877663e-09
2.755851e-09
2.5621954e-09
1.9350091e-09
1.146242e-09
4.4392008e-10
1.0637844e-10
2.1672257e-11
1.1437157e-11
8.841833e-12
6.7271838e-12
5.6449129e-12
5.1214082e-12
4.8895716e-12
4.7917777e-12
4.7550291e-12
4.7371725e-12
4.9278647e-12
5.2832997e-12
5.8137399e-12
6.5426599e-12
7.5097021e-12
8.7701634e-12
1.0421749e-11
1.2549525e-11
1.5266953e-11
1.8617339e-11
2.2564342e-11
2.7192058e-11
3.2224301e-11
3.7456297e-11
4.4418021e-11
5.2572394e-11
6.2035001e-11
7.2876497e-11
8.516598e-11
9.9108993e-11
1.1469191e-10
1.313659e-10
1.4833076e-10
1.6468546e-10
1.789307e-10
1.8984034e-10
1.9566733e-10
1.9792829e-10
1.9824058e-10
2.1542239e-10
2.9595716e-10
3.6210868e-10
4.2867445e-10
4.9319984e-10
5.5566408e-10
6.184629e-10
6.7923722e-10
7.4062656e-10
8.0093504e-10
8.6167164e-10
9.2199214e-10
9.8254815e-10
1.0429503e-09
1.103364e-09
1.1636003e-09
1.2236174e-09
1.2832536e-09
1.3423985e-09
1.4008871e-09
1.4585733e-09
1.5153008e-09
1.5709277e-09
1.6253146e-09
1.6783308e-09
1.7298467e-09
1.7797351e-09
1.8278884e-09
1.8742161e-09
1.9186489e-09
1.9610785e-09
2.0014122e-09
2.0395948e-09
2.0755705e-09
2.109291e-09
2.1407272e-09
2.1698428e-09
2.1966314e-09
2.2210638e-09
2.2431531e-09
2.262918e-09
2.2803654e-09
2.2955371e-09
2.3084675e-09
2.3191988e-09
2.3277934e-09
2.3342947e-09
2.3387921e-09
2.3413946e-09
2.3419451e-09
2.3407134e-09
2.3376497e-09
2.3327539e-09
2.3264908e-09
2.3192153e-09
2.310195e-09
2.2997072e-09
2.2880318e-09
2.2751371e-09
2.2611314e-09
2.246088e-09
2.2300529e-09
2.2130927e-09
2.195264e-09
2.1765674e-09
2.157113e-09
2.1368878e-09
2.1159649e-09
2.0944001e-09
2.0722458e-09
2.0495667e-09
2.0264131e-09
2.0028256e-09
1.9788472e-09
1.9545078e-09
1.9298083e-09
1.9047547e-09
1.8793648e-09
1.8536391e-09
1.827619e-09
1.8013074e-09
1.7747025e-09
1.7478307e-09
1.7206847e-09
1.6932482e-09
1.6655162e-09
1.6374198e-09
1.6089778e-09
1.5801085e-09
1.5508194e-09
1.5209851e-09
1.4906602e-09
1.4596326e-09
1.4280224e-09
1.3954501e-09
1.3621473e-09
1.3274639e-09
1.291819e-09
1.2541008e-09
1.2151113e-09
1.1730117e-09
1.1292134e-09
1.0807652e-09
1.0299353e-09
9.7229382e-10
9.1046933e-10
8.3527e-10
7.4845724e-10
7.4093416e-10
7.5682802e-10
7.7815055e-10
7.9957127e-10
8.1697431e-10
8.3031936e-10
8.3929378e-10
8.4519216e-10
8.4838542e-10
8.501278e-10
8.5273031e-10
8.5959123e-10
8.6906317e-10
8.7962254e-10
8.9070382e-10
9.0269171e-10
9.1474502e-10
9.270289e-10
9.4086625e-10
9.4816391e-10
9.4643442e-10
9.3528882e-10
9.2643547e-10
9.1798314e-10
9.0965721e-10
9.0280719e-10
8.9828833e-10
8.9975764e-10
9.0354461e-10
9.3831138e-10
1.0098564e-09
1.107254e-09
1.2361698e-09
1.4269869e-09
1.7102448e-09
2.1754423e-09
2.8757124e-09
3.7112416e-09
4.5566903e-09
5.0927069e-09
4.8824752e-09
3.9598659e-09
3.0465731e-09
2.5401636e-09
2.041346e-09
2.1413017e-09
2.1486248e-08
2.3998703e-08
2.2039484e-08
1.6758213e-08
9.9441205e-09
3.9020824e-09
9.1791744e-10
1.4176931e-10
7.0865264e-11
5.9706265e-11
4.8299288e-11
4.1406803e-11
3.8119151e-11
3.6902516e-11
3.669085e-11
3.6964158e-11
3.7334681e-11
3.9266113e-11
4.2432308e-11
4.7001427e-11
5.3132754e-11
6.1187575e-11
7.1602009e-11
8.5156729e-11
1.0255615e-10
1.2471719e-10
1.5214759e-10
1.8476884e-10
2.2368753e-10
2.6774982e-10
3.1511692e-10
3.7484628e-10
4.4506915e-10
5.2704622e-10
6.2148637e-10
7.2892653e-10
8.5091784e-10
9.8749603e-10
1.1340663e-09
1.2836801e-09
1.4283484e-09
1.5551181e-09
1.6525988e-09
1.7059491e-09
1.726554e-09
1.7303085e-09
1.8730321e-09
2.5636377e-09
3.1311046e-09
3.7000076e-09
4.2529095e-09
4.7871684e-09
5.3255163e-09
5.8462104e-09
6.373018e-09
6.8906237e-09
7.4124796e-09
7.931005e-09
8.4520011e-09
8.9719949e-09
9.4924867e-09
1.0011814e-08
1.0529651e-08
1.1044601e-08
1.1555731e-08
1.2061627e-08
1.2561042e-08
1.3052633e-08
1.3535182e-08
1.4007482e-08
1.4468402e-08
1.4916815e-08
1.5351614e-08
1.5771853e-08
1.6176736e-08
1.6565643e-08
1.6937605e-08
1.7291831e-08
1.7627822e-08
1.7945064e-08
1.8243111e-08
1.8521685e-08
1.8780432e-08
1.9019268e-08
1.9237907e-08
1.9436423e-08
1.961495e-08
1.9773511e-08
1.991243e-08
2.0031974e-08
2.0132475e-08
2.0214441e-08
2.0278219e-08
2.0324543e-08
2.0354377e-08
2.0366261e-08
2.0362547e-08
2.0342778e-08
2.0306918e-08
2.0259007e-08
2.0202142e-08
2.012989e-08
2.004465e-08
1.9948862e-08
1.9842234e-08
1.9725699e-08
1.9599891e-08
1.9465204e-08
1.9322212e-08
1.9171405e-08
1.9012784e-08
1.8847311e-08
1.8674868e-08
1.8496094e-08
1.8311477e-08
1.8121476e-08
1.792666e-08
1.7727471e-08
1.7524271e-08
1.7317438e-08
1.7107241e-08
1.6893692e-08
1.667685e-08
1.6456875e-08
1.6233778e-08
1.6007927e-08
1.5779356e-08
1.5548054e-08
1.531426e-08
1.5077915e-08
1.4838885e-08
1.4597132e-08
1.4352059e-08
1.4103836e-08
1.3851755e-08
1.3595885e-08
1.3335138e-08
1.306999e-08
1.2798598e-08
1.2522007e-08
1.2236912e-08
1.1945327e-08
1.1641583e-08
1.1329327e-08
1.0998852e-08
1.0657145e-08
1.0288146e-08
9.9041551e-09
9.4793907e-09
9.0336136e-09
8.5281134e-09
7.9857513e-09
7.3264388e-09
6.5657833e-09
6.5005965e-09
6.6405265e-09
6.8279533e-09
7.0166323e-09
7.1700271e-09
7.2880167e-09
7.3676654e-09
7.4203812e-09
7.4493279e-09
7.4655732e-09
7.4887461e-09
7.5486317e-09
7.6306309e-09
7.7214272e-09
7.8159678e-09
7.9174868e-09
8.0184135e-09
8.120277e-09
8.2341902e-09
8.2895404e-09
8.2655293e-09
8.1598873e-09
8.0743866e-09
7.9912444e-09
7.9087378e-09
7.8379987e-09
7.786517e-09
7.7850005e-09
7.8018128e-09
8.0830117e-09
8.6718596e-09
9.4729118e-09
1.0530248e-08
1.2102345e-08
1.4436031e-08
1.8125353e-08
2.3530768e-08
3.0117698e-08
3.6620437e-08
4.0801179e-08
3.9331979e-08
3.3100246e-08
2.5737482e-08
2.1869519e-08
1.7599721e-08
1.8716283e-08
1.1103245e-07
1.2417813e-07
1.1376043e-07
8.6670306e-08
5.1551501e-08
2.0340384e-08
4.808899e-09
7.168494e-10
3.5104646e-10
2.9866109e-10
2.43571e-10
2.0932023e-10
1.9297762e-10
1.8709193e-10
1.8632395e-10
1.8804808e-10
1.9020529e-10
2.0022468e-10
2.1649142e-10
2.3991416e-10
2.7129524e-10
3.1251119e-10
3.657761e-10
4.3503214e-10
5.2386309e-10
6.3695903e-10
7.7707106e-10
9.4427101e-10
1.1451664e-09
1.3771761e-09
1.6306415e-09
1.9408495e-09
2.3053601e-09
2.7312179e-09
3.222195e-09
3.7809691e-09
4.4153908e-09
5.1258834e-09
5.8888305e-09
6.6681045e-09
7.4221019e-09
8.0834599e-09
8.5924271e-09
8.87169e-09
8.9792221e-09
8.998184e-09
9.7313243e-09
1.3314465e-08
1.6250888e-08
1.919624e-08
2.2058831e-08
2.4823532e-08
2.7609647e-08
3.030357e-08
3.3029213e-08
3.5706796e-08
3.8406345e-08
4.1088436e-08
4.3783275e-08
4.6472852e-08
4.9165025e-08
5.1851222e-08
5.4529829e-08
5.719367e-08
5.9837991e-08
6.2455538e-08
6.5039928e-08
6.7584274e-08
7.0082319e-08
7.2527883e-08
7.4915155e-08
7.7238338e-08
7.9491732e-08
8.1670469e-08
8.3770443e-08
8.5788423e-08
8.7719447e-08
8.9559422e-08
9.1305735e-08
9.2955716e-08
9.4507014e-08
9.5958152e-08
9.7307255e-08
9.8553839e-08
9.9696363e-08
1.0073515e-07
1.0167083e-07
1.0250345e-07
1.0323463e-07
1.0386568e-07
1.0439824e-07
1.0483488e-07
1.0517734e-07
1.0542925e-07
1.0559578e-07
1.0566927e-07
1.0566147e-07
1.0557035e-07
1.0539553e-07
1.0515788e-07
1.0487357e-07
1.0450913e-07
1.040769e-07
1.0358956e-07
1.0304558e-07
1.0244976e-07
1.0180539e-07
1.0111449e-07
1.0038003e-07
9.9604557e-08
9.8788056e-08
9.7935536e-08
9.7046374e-08
9.6123886e-08
9.5170612e-08
9.4188949e-08
9.3181849e-08
9.2151628e-08
9.110017e-08
9.0029461e-08
8.89409e-08
8.7834575e-08
8.67108e-08
8.557042e-08
8.4413506e-08
8.3241983e-08
8.2056041e-08
8.0855643e-08
7.9642037e-08
7.841494e-08
7.7173662e-08
7.5918024e-08
7.4644939e-08
7.335529e-08
7.2045424e-08
7.0715698e-08
6.9360476e-08
6.7982245e-08
6.6571421e-08
6.5133466e-08
6.3651189e-08
6.2135093e-08
6.0555682e-08
5.8931964e-08
5.7213433e-08
5.5436487e-08
5.3517541e-08
5.1520669e-08
4.931168e-08
4.6993514e-08
4.4364648e-08
4.1544379e-08
3.8117257e-08
3.4167615e-08
3.3834914e-08
3.456548e-08
3.5542783e-08
3.6527244e-08
3.7327897e-08
3.7944609e-08
3.8361894e-08
3.8639066e-08
3.8792509e-08
3.888023e-08
3.9004102e-08
3.9317389e-08
3.9743375e-08
4.0213778e-08
4.0702547e-08
4.122638e-08
4.1745462e-08
4.226835e-08
4.2850567e-08
4.3125252e-08
4.2987792e-08
4.2430883e-08
4.1981062e-08
4.1541579e-08
4.1105571e-08
4.0730449e-08
4.0455611e-08
4.0438518e-08
4.0520804e-08
4.1975473e-08
4.5004411e-08
4.9121172e-08
5.4546095e-08
6.2613368e-08
7.4567575e-08
9.2978201e-08
1.1948173e-07
1.520778e-07
1.8379616e-07
2.0391404e-07
1.9662811e-07
1.6832438e-07
1.3156428e-07
1.1253076e-07
9.0805482e-08
9.6957343e-08
4.1634233e-07
4.6607719e-07
4.261629e-07
3.2558757e-07
1.9451593e-07
7.7331366e-08
1.8460194e-08
2.7365097e-09
1.3180416e-09
1.1211846e-09
9.1613362e-10
7.8754816e-10
7.2605238e-10
7.0399893e-10
7.0131844e-10
7.0811375e-10
7.1636377e-10
7.5399496e-10
8.1509282e-10
9.0311941e-10
1.0210938e-09
1.1761089e-09
1.3764598e-09
1.6368613e-09
1.9708281e-09
2.3958554e-09
2.9225207e-09
3.5525554e-09
4.3127955e-09
5.2015649e-09
6.1820958e-09
7.3601794e-09
8.7435782e-09
1.0360325e-08
1.2224949e-08
1.43472e-08
1.6756366e-08
1.9454849e-08
2.2353901e-08
2.5316275e-08
2.8183936e-08
3.0700763e-08
3.2638654e-08
3.3702291e-08
3.4108964e-08
3.4173685e-08
3.6916725e-08
5.0511779e-08
6.1589968e-08
7.2718281e-08
8.3528176e-08
9.3961113e-08
1.0447157e-07
1.1462877e-07
1.2490271e-07
1.3499167e-07
1.4516088e-07
1.5526165e-07
1.6540848e-07
1.755338e-07
1.8566762e-07
1.9577815e-07
2.0585974e-07
2.1588584e-07
2.2583904e-07
2.3569255e-07
2.4542281e-07
2.5500431e-07
2.64414e-07
2.7362899e-07
2.8262778e-07
2.9138887e-07
2.9989106e-07
3.0811622e-07
3.1604908e-07
3.2367779e-07
3.3098404e-07
3.37952e-07
3.4457175e-07
3.5083315e-07
3.5672713e-07
3.6224795e-07
3.6738824e-07
3.7214588e-07
3.7651473e-07
3.8049559e-07
3.8409043e-07
3.8729906e-07
3.9012706e-07
3.9257899e-07
3.9466053e-07
3.9638098e-07
3.9774637e-07
3.9876962e-07
3.9947073e-07
3.9982123e-07
3.9986155e-07
3.9958685e-07
3.9899413e-07
3.9816192e-07
3.9715177e-07
3.9583678e-07
3.9426293e-07
3.9247812e-07
3.9047648e-07
3.8827603e-07
3.8588906e-07
3.8332321e-07
3.8058962e-07
3.7769795e-07
3.746479e-07
3.7145871e-07
3.6812784e-07
3.646679e-07
3.6108853e-07
3.5739887e-07
3.5361016e-07
3.4973124e-07
3.4576933e-07
3.4173205e-07
3.376248e-07
3.33448e-07
3.2920293e-07
3.2489289e-07
3.2051822e-07
3.1608633e-07
3.1159804e-07
3.070533e-07
3.0245694e-07
2.9780798e-07
2.9310389e-07
2.8834411e-07
2.8351697e-07
2.7862592e-07
2.7365718e-07
2.6861219e-07
2.6346959e-07
2.5823896e-07
2.5288391e-07
2.4742534e-07
2.4179794e-07
2.3604179e-07
2.300448e-07
2.2387943e-07
2.1735367e-07
2.1060617e-07
2.0331911e-07
1.957365e-07
1.8734798e-07
1.7854562e-07
1.6856323e-07
1.578559e-07
1.4484893e-07
1.2987459e-07
1.2863344e-07
1.3141761e-07
1.3513879e-07
1.3888978e-07
1.4194151e-07
1.4429523e-07
1.4589142e-07
1.4695506e-07
1.4754783e-07
1.4789271e-07
1.48376e-07
1.4957242e-07
1.5118717e-07
1.5296483e-07
1.5480711e-07
1.5677776e-07
1.5872249e-07
1.6067704e-07
1.6284241e-07
1.6382767e-07
1.6324874e-07
1.6110081e-07
1.593701e-07
1.5767067e-07
1.5598552e-07
1.5453121e-07
1.5345884e-07
1.5335668e-07
1.5365154e-07
1.5914364e-07
1.704803e-07
1.8588659e-07
2.0611943e-07
2.3618307e-07
2.805876e-07
3.4758088e-07
4.4240725e-07
5.5881261e-07
6.6958227e-07
7.3753558e-07
7.100936e-07
6.1549057e-07
4.8462195e-07
4.1811806e-07
3.3935016e-07
3.6415397e-07
1.2513461e-06
1.4021408e-06
1.2806547e-06
9.828002e-07
5.9168078e-07
2.3806827e-07
5.7657482e-08
8.5613761e-09
4.0537616e-09
3.4421594e-09
2.8156215e-09
2.4204856e-09
2.2309628e-09
2.1630409e-09
2.1550309e-09
2.1764513e-09
2.201769e-09
2.3166752e-09
2.5035457e-09
2.7730505e-09
3.1344447e-09
3.6095017e-09
4.2235339e-09
5.0216253e-09
6.0449446e-09
7.3463434e-09
8.9599912e-09
1.0892141e-08
1.3232834e-08
1.5991309e-08
1.9054783e-08
2.2689776e-08
2.6955817e-08
3.1942673e-08
3.7695721e-08
4.424343e-08
5.1674376e-08
5.9998755e-08
6.8945687e-08
7.8091676e-08
8.6949127e-08
9.4726958e-08
1.0071714e-07
1.0400193e-07
1.0523875e-07
1.0539057e-07
1.1364374e-07
1.5551148e-07
1.8930482e-07
2.2332633e-07
2.5633785e-07
2.8816022e-07
3.2019704e-07
3.5112832e-07
3.8239713e-07
4.1308267e-07
4.4399755e-07
4.7469025e-07
5.0551209e-07
5.3625995e-07
5.670271e-07
5.977199e-07
6.2832338e-07
6.5875984e-07
6.8897875e-07
7.1890199e-07
7.4845966e-07
7.7757752e-07
8.0618765e-07
8.3422264e-07
8.6161912e-07
8.8831349e-07
9.1424269e-07
9.3935276e-07
9.6359825e-07
9.8694488e-07
1.009337e-06
1.0307259e-06
1.0510809e-06
1.0703705e-06
1.0885663e-06
1.1056496e-06
1.1215965e-06
1.1363989e-06
1.1500363e-06
1.162509e-06
1.1738208e-06
1.183969e-06
1.1929681e-06
1.2008297e-06
1.2075687e-06
1.2132109e-06
1.2177725e-06
1.2212886e-06
1.223821e-06
1.2252889e-06
1.2257917e-06
1.2253306e-06
1.2238884e-06
1.221703e-06
1.2189648e-06
1.2152839e-06
1.2107972e-06
1.2056511e-06
1.1998273e-06
1.19338e-06
1.1863461e-06
1.1787488e-06
1.1706219e-06
1.1619948e-06
1.1528655e-06
1.1432945e-06
1.1332729e-06
1.1228397e-06
1.1120246e-06
1.1008559e-06
1.0893684e-06
1.0775896e-06
1.0655421e-06
1.0532499e-06
1.0407299e-06
1.027984e-06
1.0150167e-06
1.0018384e-06
9.8845068e-07
9.7487695e-07
9.6112021e-07
9.4718082e-07
9.3307415e-07
9.1879771e-07
9.0434424e-07
8.8971246e-07
8.7486693e-07
8.5981872e-07
8.4452576e-07
8.2899297e-07
8.131549e-07
7.9704152e-07
7.8054096e-07
7.637182e-07
7.4637204e-07
7.2862671e-07
7.1013653e-07
6.9112587e-07
6.7100204e-07
6.5019417e-07
6.2772065e-07
6.0433649e-07
5.7846484e-07
5.5131903e-07
5.2053152e-07
4.8751368e-07
4.4741514e-07
4.0129338e-07
3.9752595e-07
4.0614377e-07
4.1765364e-07
4.292639e-07
4.3871309e-07
4.4601028e-07
4.509692e-07
4.5428169e-07
4.5613726e-07
4.5723327e-07
4.5875739e-07
4.6245705e-07
4.6741042e-07
4.7284159e-07
4.7844666e-07
4.8442721e-07
4.9028887e-07
4.9615715e-07
5.0261687e-07
5.0539317e-07
5.0332918e-07
4.9652461e-07
4.9104321e-07
4.8562518e-07
4.8025168e-07
4.7558379e-07
4.7209042e-07
4.7154393e-07
4.7227784e-07
4.8892177e-07
5.2293983e-07
5.6924466e-07
6.296676e-07
7.1931648e-07
8.5108434e-07
1.0461142e-06
1.3170104e-06
1.6458616e-06
1.9488615e-06
2.1241247e-06
2.0367762e-06
1.7815305e-06
1.4159944e-06
1.2358924e-06
1.0133246e-06
1.0947944e-06
3.1756895e-06
3.5611101e-06
3.2565375e-06
2.5168737e-06
1.5342843e-06
6.2888364e-07
1.5558775e-07
2.3244533e-08
1.0802705e-08
9.1527747e-09
7.4945657e-09
6.4430869e-09
5.9370565e-09
5.7557311e-09
5.7349201e-09
5.7933332e-09
5.8604129e-09
6.1638121e-09
6.6583012e-09
7.3722489e-09
8.3301455e-09
9.5896898e-09
1.1217866e-08
1.3334646e-08
1.6045883e-08
1.9492742e-08
2.3770654e-08
2.8887855e-08
3.5117082e-08
4.2496948e-08
5.0731537e-08
6.0413935e-08
7.1770917e-08
8.504933e-08
1.0037113e-07
1.1780648e-07
1.3758537e-07
1.5974301e-07
1.8356591e-07
2.0792608e-07
2.3152452e-07
2.522522e-07
2.6820883e-07
2.7692942e-07
2.8011358e-07
2.8028404e-07
3.0149356e-07
4.1237618e-07
5.007861e-07
5.8998389e-07
6.7636746e-07
7.5948488e-07
8.4306254e-07
9.2364025e-07
1.0050191e-06
1.0847995e-06
1.1651153e-06
1.244799e-06
1.3247758e-06
1.4045296e-06
1.4843093e-06
1.5638865e-06
1.6432301e-06
1.7221513e-06
1.8005291e-06
1.8781697e-06
1.9549047e-06
2.0305498e-06
2.1049379e-06
2.1779026e-06
2.2492865e-06
2.3189313e-06
2.3866783e-06
2.4523918e-06
2.5159584e-06
2.5772952e-06
2.636254e-06
2.6927069e-06
2.7465728e-06
2.7977674e-06
2.8462124e-06
2.8918545e-06
2.9346261e-06
2.9744988e-06
3.0114125e-06
3.0453597e-06
3.0763413e-06
3.1043419e-06
3.1293903e-06
3.1515064e-06
3.1707203e-06
3.1870895e-06
3.200647e-06
3.2114706e-06
3.2197101e-06
3.2252087e-06
3.2280999e-06
3.2284658e-06
3.2262273e-06
3.2219967e-06
3.216282e-06
3.2080554e-06
3.1976597e-06
3.1854784e-06
3.1714614e-06
3.1557471e-06
3.1384301e-06
3.1195696e-06
3.0992522e-06
3.077556e-06
3.0544696e-06
3.0301588e-06
3.0045955e-06
2.9778832e-06
2.9501006e-06
2.9213231e-06
2.8916437e-06
2.861136e-06
2.8298617e-06
2.7978853e-06
2.7652536e-06
2.7319737e-06
2.698059e-06
2.6635393e-06
2.6284205e-06
2.5927664e-06
2.5565872e-06
2.519886e-06
2.4827054e-06
2.445041e-06
2.4068756e-06
2.3682078e-06
2.3289456e-06
2.28912e-06
2.2486214e-06
2.2074645e-06
2.1654772e-06
2.122741e-06
2.0789599e-06
2.0343086e-06
1.9882537e-06
1.9411271e-06
1.8920109e-06
1.8415037e-06
1.7880297e-06
1.7327328e-06
1.6730007e-06
1.6108456e-06
1.542068e-06
1.4699029e-06
1.3880407e-06
1.3002541e-06
1.1936501e-06
1.0711114e-06
1.0612205e-06
1.0842235e-06
1.1149327e-06
1.1459304e-06
1.1711657e-06
1.1906745e-06
1.203953e-06
1.2128312e-06
1.2178232e-06
1.2208002e-06
1.2249079e-06
1.2347178e-06
1.24774e-06
1.2619389e-06
1.2764964e-06
1.2919725e-06
1.3069776e-06
1.3219002e-06
1.3381939e-06
1.3445725e-06
1.3378992e-06
1.319011e-06
1.3037562e-06
1.2885458e-06
1.273444e-06
1.2601828e-06
1.2500095e-06
1.2474859e-06
1.2484947e-06
1.291237e-06
1.3776049e-06
1.4957982e-06
1.6483761e-06
1.8743792e-06
2.2044168e-06
2.6835743e-06
3.3350743e-06
4.1115835e-06
4.7980823e-06
5.1595634e-06
4.9120624e-06
4.3165942e-06
3.4640576e-06
3.0614975e-06
2.5469036e-06
2.771316e-06
6.9962192e-06
7.8506813e-06
7.2156382e-06
5.636387e-06
3.5001824e-06
1.4736988e-06
3.7595313e-07
5.6843486e-08
2.5871502e-08
2.1867048e-08
1.7927133e-08
1.5414537e-08
1.4200649e-08
1.3765857e-08
1.3717684e-08
1.3861302e-08
1.4021145e-08
1.4740318e-08
1.591548e-08
1.7614147e-08
1.989433e-08
2.2893023e-08
2.6771699e-08
3.1810786e-08
3.8257118e-08
4.6451129e-08
5.663353e-08
6.8784441e-08
8.3645776e-08
1.01331e-07
1.2112584e-07
1.4423673e-07
1.7132762e-07
2.0300407e-07
2.3955752e-07
2.8113699e-07
3.2827267e-07
3.8106747e-07
4.3783604e-07
4.9588568e-07
5.5211263e-07
6.0148014e-07
6.3941185e-07
6.5997186e-07
6.6706173e-07
6.6652455e-07
7.1477405e-07
9.7620548e-07
1.1815599e-06
1.3891043e-06
1.5895019e-06
1.7818155e-06
1.9748396e-06
2.1605618e-06
2.3478628e-06
2.5312325e-06
2.7156328e-06
2.898414e-06
3.0817363e-06
3.2644617e-06
3.4471744e-06
3.6294084e-06
3.8111138e-06
3.9918907e-06
4.1715022e-06
4.3495344e-06
4.5256323e-06
4.6994028e-06
4.87049e-06
5.0385364e-06
5.2032038e-06
5.3641477e-06
5.5210202e-06
5.673523e-06
5.8214154e-06
5.9645177e-06
6.1024715e-06
6.2349844e-06
6.3618646e-06
6.4829101e-06
6.5979284e-06
6.7067831e-06
6.8093018e-06
6.9053984e-06
6.9949142e-06
7.0778073e-06
7.1540532e-06
7.223592e-06
7.2864619e-06
7.34268e-06
7.3922889e-06
7.4353911e-06
7.4720363e-06
7.5023705e-06
7.5266629e-06
7.5447759e-06
7.5566242e-06
7.5625902e-06
7.5624264e-06
7.557506e-06
7.5490339e-06
7.5346143e-06
7.5149888e-06
7.4910424e-06
7.4626548e-06
7.4301335e-06
7.3936898e-06
7.3534548e-06
7.3096246e-06
7.2623775e-06
7.2116754e-06
7.1579144e-06
7.101019e-06
7.0412319e-06
6.9787365e-06
6.9137107e-06
6.8463747e-06
6.7769035e-06
6.7054456e-06
6.6321573e-06
6.5571532e-06
6.4804556e-06
6.4021016e-06
6.3221667e-06
6.2406688e-06
6.1577653e-06
6.0734859e-06
5.9878453e-06
5.9009485e-06
5.812792e-06
5.7233416e-06
5.6326002e-06
5.5403571e-06
5.4466906e-06
5.3513475e-06
5.2543684e-06
5.1553516e-06
5.0544945e-06
4.9511021e-06
4.845592e-06
4.7367067e-06
4.6252351e-06
4.5090082e-06
4.3894454e-06
4.262816e-06
4.131831e-06
3.9902967e-06
3.842983e-06
3.6799178e-06
3.5087773e-06
3.3145538e-06
3.1062229e-06
2.8531513e-06
2.5622829e-06
2.5389978e-06
2.5938454e-06
2.6670588e-06
2.7409945e-06
2.801192e-06
2.8477562e-06
2.8794681e-06
2.9006524e-06
2.9125825e-06
2.9197017e-06
2.9294537e-06
2.9524877e-06
2.9827843e-06
3.015567e-06
3.0488632e-06
3.0840294e-06
3.1176102e-06
3.1506386e-06
3.1863541e-06
3.1982715e-06
3.1781654e-06
3.130443e-06
3.091759e-06
3.0527511e-06
3.0139421e-06
2.979374e-06
2.9519912e-06
2.9421683e-06
2.941011e-06
3.0369997e-06
3.228093e-06
3.4930591e-06
3.8293701e-06
4.3271646e-06
5.048696e-06
6.075999e-06
7.4415983e-06
9.033177e-06
1.0375472e-05
1.0990672e-05
1.035679e-05
9.0897781e-06
7.3472088e-06
6.5595719e-06
5.5504667e-06
6.0682105e-06
1.3603558e-05
1.5283179e-05
1.4179613e-05
1.1241248e-05
7.156345e-06
3.1233947e-06
8.3097831e-07
1.2837441e-07
5.7063011e-08
4.8098022e-08
3.9489486e-08
3.3966886e-08
3.1286889e-08
3.0327915e-08
3.0226875e-08
3.0553428e-08
3.0905386e-08
3.2473349e-08
3.504366e-08
3.8763295e-08
4.3758199e-08
5.0330486e-08
5.8832408e-08
6.9860008e-08
8.3956164e-08
1.0186577e-07
1.2415602e-07
1.5067385e-07
1.8319244e-07
2.2212667e-07
2.6575704e-07
3.1639489e-07
3.7570374e-07
4.4504031e-07
5.2503406e-07
6.1595507e-07
7.1890831e-07
8.3415144e-07
9.5801887e-07
1.0846053e-06
1.2070919e-06
1.3144453e-06
1.3965512e-06
1.4403102e-06
1.4538946e-06
1.449585e-06
1.5490795e-06
2.1094802e-06
2.5419611e-06
2.9795421e-06
3.4002874e-06
3.8026781e-06
4.205529e-06
4.592152e-06
4.9813087e-06
5.3616522e-06
5.7435952e-06
6.1217628e-06
6.5007138e-06
6.8782452e-06
7.2555727e-06
7.6318799e-06
8.0071376e-06
8.3806087e-06
8.7518813e-06
9.1201811e-06
9.4848476e-06
9.8451362e-06
1.0200375e-05
1.0549881e-05
1.0893006e-05
1.1229083e-05
1.1557428e-05
1.1877461e-05
1.2188746e-05
1.2490889e-05
1.2783116e-05
1.3064826e-05
1.3335609e-05
1.3595028e-05
1.3842657e-05
1.407818e-05
1.4301206e-05
1.4511508e-05
1.4708713e-05
1.489268e-05
1.5063297e-05
1.5220388e-05
1.536397e-05
1.5494013e-05
1.5610546e-05
1.5713714e-05
1.580356e-05
1.5880318e-05
1.5944359e-05
1.5995824e-05
1.6033981e-05
1.6059589e-05
1.607227e-05
1.6074695e-05
1.6069452e-05
1.6051537e-05
1.6022345e-05
1.5983708e-05
1.5935369e-05
1.5877931e-05
1.5811812e-05
1.5737269e-05
1.5654694e-05
1.556444e-05
1.5466435e-05
1.5361469e-05
1.5249397e-05
1.5130717e-05
1.5005808e-05
1.4875046e-05
1.4738896e-05
1.459773e-05
1.4451869e-05
1.4301651e-05
1.4147327e-05
1.3988956e-05
1.3826628e-05
1.3660514e-05
1.3490658e-05
1.3317408e-05
1.3140849e-05
1.2961016e-05
1.2778148e-05
1.2592252e-05
1.2403271e-05
1.2211223e-05
1.2015675e-05
1.1816805e-05
1.1614085e-05
1.1407614e-05
1.1196544e-05
1.0981309e-05
1.076043e-05
1.053481e-05
1.0301766e-05
1.0062987e-05
9.813835e-06
9.5573438e-06
9.2855134e-06
9.0041395e-06
8.6999118e-06
8.3830352e-06
8.0320259e-06
7.6633367e-06
7.2445293e-06
6.7948818e-06
6.2480545e-06
5.619007e-06
5.5688168e-06
5.6879853e-06
5.8470768e-06
6.007753e-06
6.1385316e-06
6.2396721e-06
6.3084859e-06
6.3543612e-06
6.3801231e-06
6.3953414e-06
6.4160541e-06
6.4647723e-06
6.5282206e-06
6.5961717e-06
6.6643797e-06
6.7354118e-06
6.8020519e-06
6.8663982e-06
6.9353034e-06
6.9517974e-06
6.8963467e-06
6.7838091e-06
6.6930887e-06
6.6002194e-06
6.5075571e-06
6.4237135e-06
6.3549976e-06
6.322676e-06
6.3098026e-06
6.5021345e-06
6.8770166e-06
7.4089291e-06
8.0699344e-06
9.049158e-06
1.0458494e-05
1.2427601e-05
1.4989956e-05
1.7910206e-05
2.025906e-05
2.1153511e-05
1.9680274e-05
1.7138089e-05
1.3883305e-05
1.2451268e-05
1.0706661e-05
1.1700415e-05
2.3684594e-05
2.6667552e-05
2.5062677e-05
2.0242177e-05
1.3277778e-05
6.0573106e-06
1.7003773e-06
2.7242133e-07
1.1791415e-07
9.9053719e-08
8.14648e-08
7.0114774e-08
6.4578536e-08
6.2601008e-08
6.2407279e-08
6.3105018e-08
6.3835946e-08
6.7031558e-08
7.2292444e-08
7.991455e-08
9.0152212e-08
1.0364234e-07
1.2106388e-07
1.436211e-07
1.7243803e-07
2.09026e-07
2.5463263e-07
3.0873088e-07
3.7497484e-07
4.5507651e-07
5.4473596e-07
6.4823405e-07
7.6930786e-07
9.1077054e-07
1.0738558e-06
1.2589542e-06
1.4681607e-06
1.7020204e-06
1.9530478e-06
2.209142e-06
2.456298e-06
2.6720148e-06
2.8355054e-06
2.9200085e-06
2.9414793e-06
2.9240654e-06
3.1136186e-06
4.2197919e-06
5.0566415e-06
5.9035919e-06
6.7136487e-06
7.4851937e-06
8.2551625e-06
8.9919451e-06
9.7317864e-06
1.0453527e-05
1.1177088e-05
1.1892629e-05
1.2608943e-05
1.3322121e-05
1.4034655e-05
1.4745173e-05
1.5453797e-05
1.6159315e-05
1.6861091e-05
1.7557816e-05
1.8248371e-05
1.8931475e-05
1.9605968e-05
2.0270663e-05
2.0924422e-05
2.1566065e-05
2.2194372e-05
2.280833e-05
2.3407255e-05
2.3990227e-05
2.4555776e-05
2.5102783e-05
2.5630444e-05
2.6137913e-05
2.6624332e-05
2.7089065e-05
2.7531314e-05
2.795057e-05
2.8346071e-05
2.8717459e-05
2.9064425e-05
2.9386558e-05
2.9683793e-05
2.9955968e-05
3.0203045e-05
3.0425183e-05
3.0622371e-05
3.0794935e-05
3.0943345e-05
3.1067926e-05
3.1168092e-05
3.1243167e-05