/*--------------------------------*- C++ -*----------------------------------*\
| =========                 |                                                 |
| \\      /  F ield         | OpenFOAM: The Open Source CFD Toolbox           |
|  \\    /   O peration     | Version:  2.4.0                                 |
|   \\  /    A nd           | Web:      www.OpenFOAM.org                      |
|    \\/     M anipulation  |                                                 |
\*---------------------------------------------------------------------------*/
FoamFile
{
    version     2.0;
    format      ascii;
    class       volScalarField;
    location    "20000";
    object      omega;
}
// * * * * * * * * * * * * * * * * * * * * * * * * * * * * * * * * * * * * * //

dimensions      [0 0 -1 0 0 0 0];

internalField   nonuniform List<scalar> 
32000
(
89220.222
89230.462
89259.402
89570.704
90688.178
93335.916
98254.84
105172.35
111843.73
117265.1
121052.95
123101.64
123585.53
122630.71
120422.05
117088.36
112793.08
107948.7
103389.2
99244.544
95463.415
92013.209
88865.326
85981.441
83351.356
80938.403
78719.092
76480.566
74076.193
71524.008
68852.745
66091.376
63268.447
60412.243
57547.629
54723.801
52053.445
49646.348
47502.535
45619.239
44000.027
42647.862
41567.576
40766.932
40254.264
40038.598
40093.676
40115.591
40115.591
40115.591
40115.591
40115.591
40115.591
40115.591
40115.591
40115.592
40115.591
40115.592
40115.592
40115.592
40115.592
40115.592
40115.592
40115.592
40115.592
40115.592
40115.592
40115.592
40115.593
40115.592
40115.593
40115.592
40115.593
40115.592
40115.593
40115.593
40115.593
40115.592
40115.593
40115.592
40115.592
40115.593
40115.592
40115.592
40115.593
40115.592
40115.592
40115.592
40115.592
40115.592
40115.592
40115.592
40115.592
40115.592
40115.592
40115.592
40115.592
40115.592
40115.592
40115.591
40115.591
40115.592
40115.591
40115.592
40115.592
40115.591
40115.591
40115.592
40115.591
40115.591
40115.591
40115.591
40115.591
40115.591
40115.591
40115.591
40115.591
40115.591
40115.591
40115.591
40115.591
40115.591
40115.591
40115.591
40115.591
40115.59
40115.591
40115.591
40115.59
40115.59
40115.591
40115.59
40115.59
40115.591
40115.59
40115.591
40115.591
40115.59
40115.591
40115.591
40115.59
40115.59
40115.591
40115.59
40115.591
40115.591
40115.59
40115.59
40115.591
40115.59
40115.591
40115.59
40115.59
40093.699
40038.588
40254.396
40766.22
41568.242
42649.167
43996.814
45619.943
47504.542
49650.281
52052.716
54711.85
57548.93
60416.302
63272.067
66095.573
68856.635
71529.078
74082.283
76485.089
78720.042
80933.43
83305.573
85985.778
88870.015
92016.66
95465.276
99247.6
103390.85
107950.53
112794.48
117089.66
120423.13
122636.6
123588.22
123106.02
121062.96
117275.21
111829.35
105157.43
98261.466
93338.59
90686.635
89570.788
89259.41
89230.617
89220.371
14860.615
14861.104
14865.829
14917.99
15103.998
15543.18
16358.212
16796.827
17862.871
18730.407
19337.385
19666.561
19745.623
19594.724
19243.405
18712.27
18027.319
17254.077
16526.148
15865.841
15266.114
14723.487
14231.038
13776.548
13357.66
12969.353
12617.213
12276.298
11947.012
11694.209
11462.733
11010.922
10540.974
10065.443
9588.4634
9118.1638
8673.2465
8272.0833
7914.79
7600.9014
7331.0172
7105.6408
6925.5798
6792.1439
6706.726
6670.8287
6679.5127
6682.2635
6682.0727
6682.0348
6682.002
6681.9785
6681.9603
6681.9468
6681.9367
6681.9291
6681.9233
6681.9187
6681.915
6681.9118
6681.9089
6681.9059
6681.903
6681.8997
6681.8963
6681.8924
6681.8882
6681.8836
6681.8787
6681.8734
6681.8679
6681.862
6681.8559
6681.8494
6681.8427
6681.8357
6681.8308
6681.8267
6681.8224
6681.8178
6681.813
6681.808
6681.8027
6681.7972
6681.7917
6681.7859
6681.7801
6681.7743
6681.7683
6681.7624
6681.7564
6681.7504
6681.7446
6681.7387
6681.733
6681.7274
6681.7218
6681.7164
6681.7112
6681.706
6681.7011
6681.6963
6681.6917
6681.6873
6681.6831
6681.679
6681.6751
6681.6715
6681.668
6681.6647
6681.6616
6681.6587
6681.656
6681.6535
6681.6512
6681.6491
6681.6471
6681.6453
6681.6437
6681.6422
6681.6409
6681.6398
6681.6388
6681.638
6681.6373
6681.6367
6681.6362
6681.6359
6681.6357
6681.6356
6681.6357
6681.6357
6681.636
6681.6363
6681.6368
6681.6373
6681.638
6681.6388
6681.6397
6681.6407
6681.6418
6681.6432
6681.6447
6681.6465
6681.6484
6681.6508
6681.6532
6681.6566
6681.66
6681.6649
6681.6736
6681.6912
6681.8175
6679.068
6670.7122
6706.7722
6792.0572
6925.7284
7105.8778
7330.4936
7601.0221
7915.1099
8272.7033
8673.0573
9116.1006
9588.5884
10065.978
10541.4
11011.411
11470.985
11915.772
12340.671
12740.506
13112.503
13481.172
13876.53
14323.186
14803.779
15328.144
15902.823
16533.083
17223.49
17983.15
18789.411
19503.429
20057.162
20424.218
20581.068
20499.09
19861.576
18830.563
17895.405
16808.203
15709.728
14950.87
15106.905
14921.807
14869.699
14864.15
14861.539
4791.6291
4791.2335
4793.8195
4811.6607
4872.0258
5013.1243
5274.1904
5493.5861
5841.2924
6125.4932
6324.6698
6432.9945
6459.3883
6410.4859
6295.9643
6122.5577
5898.7763
5645.8692
5407.5482
5191.1644
4994.3276
4815.6924
4653.2792
4503.7864
4366.5196
4239.7291
4124.1962
4010.7446
3896.6244
3795.7607
3697.1429
3550.851
3399.3766
3246.0813
3092.3086
2940.668
2797.1704
2667.7523
2552.4815
2451.2097
2364.1303
2291.4125
2233.3167
2190.2848
2162.7647
2151.3247
2154.2131
2154.8781
2154.7318
2154.7075
2154.6818
2154.6705
2154.6621
2154.66
2154.6604
2154.6635
2154.6679
2154.6733
2154.679
2154.6848
2154.6902
2154.6951
2154.6993
2154.7026
2154.7049
2154.7061
2154.7062
2154.7051
2154.703
2154.6997
2154.6953
2154.6898
2154.6832
2154.6757
2154.6671
2154.6575
2154.6484
2154.6387
2154.6282
2154.6168
2154.6047
2154.5918
2154.5784
2154.5643
2154.5498
2154.5348
2154.5195
2154.5039
2154.4881
2154.4721
2154.4561
2154.4401
2154.4241
2154.4082
2154.3925
2154.377
2154.3617
2154.3467
2154.3321
2154.3179
2154.304
2154.2906
2154.2776
2154.265
2154.253
2154.2414
2154.2304
2154.2198
2154.2098
2154.2002
2154.1912
2154.1827
2154.1747
2154.1672
2154.1602
2154.1538
2154.1478
2154.1423
2154.1373
2154.1327
2154.1285
2154.1248
2154.1214
2154.1185
2154.116
2154.1138
2154.1119
2154.1104
2154.1093
2154.1084
2154.1079
2154.1076
2154.1076
2154.1079
2154.1085
2154.1094
2154.1105
2154.1119
2154.1136
2154.1156
2154.118
2154.1207
2154.1238
2154.1273
2154.1314
2154.1361
2154.1415
2154.148
2154.1554
2154.1648
2154.1777
2154.197
2154.2809
2153.644
2151.1418
2162.7842
2190.281
2233.3924
2291.497
2363.9501
2451.213
2552.5222
2667.861
2796.9887
2939.8589
3092.1702
3246.0273
3399.2453
3550.7118
3698.8072
3842.1324
3979.0436
4107.8789
4227.7878
4346.6994
4474.2726
4618.3663
4773.399
4942.5597
5127.9486
5331.2604
5553.9701
5798.963
6058.7685
6288.6085
6466.9946
6585.1208
6635.5057
6608.7055
6436.7046
6149.908
5852.8216
5502.0764
5145.9067
4897.1247
4879.2838
4818.2387
4799.0777
4795.8872
4792.5435
2149.2357
2148.6241
2151.1283
2160.4552
2187.9058
2250.5853
2365.5364
2481.0027
2636.8777
2765.3078
2855.5577
2904.821
2916.9803
2895.088
2843.5339
2765.3561
2664.4496
2550.298
2442.6355
2344.8287
2255.787
2174.8503
2101.1954
2033.4959
1971.4567
1914.2599
1862.0059
1810.3193
1757.2713
1707.411
1657.4679
1591.7591
1523.8886
1455.1929
1386.2798
1318.3194
1253.9951
1195.9631
1144.2689
1098.8497
1059.7904
1027.1751
1001.1201
981.84799
969.55726
964.62549
966.18478
966.40932
966.28228
966.27434
966.25923
966.26391
966.2697
966.28331
966.29846
966.31654
966.33511
966.35425
966.37285
966.39072
966.4073
966.42237
966.43564
966.44691
966.45601
966.46281
966.46724
966.46929
966.469
966.46637
966.46142
966.4542
966.44476
966.43318
966.41956
966.40383
966.38721
966.36877
966.34855
966.32667
966.30323
966.2784
966.2523
966.22504
966.1968
966.1677
966.13784
966.10744
966.0766
966.04545
966.01414
965.98276
965.95146
965.92035
965.88949
965.85903
965.82904
965.79958
965.77081
965.7428
965.71545
965.6889
965.66324
965.63846
965.61461
965.59172
965.56978
965.54882
965.52885
965.50985
965.49189
965.47489
965.45892
965.44396
965.42999
965.417
965.40498
965.39387
965.38367
965.37435
965.36586
965.35819
965.35133
965.34524
965.33992
965.33532
965.33141
965.32819
965.32559
965.32361
965.32221
965.32137
965.3211
965.32137
965.32214
965.32345
965.32527
965.32762
965.33049
965.33389
965.33788
965.34243
965.34769
965.3536
965.3605
965.3682
965.37735
965.38762
965.40008
965.4145
965.43397
965.45898
965.52818
965.37155
964.3116
969.51901
981.82754
1001.1394
1027.1745
1059.6438
1098.7519
1144.1537
1195.8426
1253.71
1317.7213
1385.9378
1454.8364
1523.4504
1591.2825
1657.6067
1721.8005
1783.1291
1840.8545
1894.6205
1947.9836
2005.248
2069.8937
2139.4482
2215.3413
2298.5118
2389.7178
2489.6233
2599.4829
2715.8813
2818.7757
2898.9769
2952.1559
2975.0897
2963.5538
2895.4179
2779.3194
2649.0928
2494.6887
2337.8212
2226.904
2201.2051
2171.5288
2159.2624
2155.5395
2150.3925
1161.5638
1160.9066
1163.437
1169.8638
1184.8279
1217.7304
1277.3221
1343.5123
1426.5843
1496.0744
1545.1402
1572.0733
1578.814
1567.0744
1539.2536
1496.9938
1442.4763
1380.744
1322.4697
1269.5093
1221.2757
1177.3926
1137.4394
1100.7491
1067.1671
1036.2397
1007.9342
979.81899
950.63167
922.27058
893.5105
858.05402
821.48122
784.45698
747.31415
710.68844
676.01829
644.72556
616.84353
592.34347
571.26927
553.67519
539.6235
529.26261
522.69925
520.27153
521.44705
521.56002
521.4522
521.46802
521.47149
521.49843
521.52439
521.55871
521.59327
521.6302
521.66643
521.70219
521.73612
521.76803
521.79725
521.82349
521.84641
521.86577
521.88135
521.89299
521.90064
521.90427
521.90399
521.89978
521.89172
521.8799
521.86441
521.84541
521.82304
521.79731
521.76894
521.73754
521.7033
521.66643
521.62713
521.58564
521.54218
521.49692
521.45015
521.40208
521.35288
521.30287
521.25224
521.20118
521.14993
521.09863
521.04754
520.9968
520.94654
520.89696
520.84821
520.80035
520.75365
520.70819
520.66385
520.62084
520.57929
520.53918
520.50062
520.46362
520.42818
520.39436
520.36216
520.33154
520.30264
520.2753
520.24963
520.22561
520.2032
520.1824
520.16315
520.14541
520.12915
520.11432
520.10085
520.08872
520.07791
520.06836
520.06006
520.05294
520.04693
520.04205
520.03818
520.03531
520.0334
520.03239
520.0323
520.03306
520.03466
520.03708
520.04032
520.04436
520.04923
520.05487
520.06145
520.06878
520.07727
520.08654
520.09741
520.10915
520.12329
520.1385
520.15738
520.17808
520.2057
520.23828
520.30627
520.31188
519.7573
522.54267
529.15499
539.54345
553.55811
571.04156
592.10266
616.5536
644.39244
675.55719
710.02172
746.73566
783.81549
820.74788
857.26634
892.97872
927.55721
960.60591
991.73479
1020.7698
1049.626
1080.5921
1115.5132
1153.0921
1194.0947
1239.0259
1288.2946
1342.2638
1401.5762
1464.3594
1519.8457
1563.5452
1592.6955
1605.7084
1600.3415
1567.5237
1510.4276
1443.06
1363.4348
1282.9758
1225.2081
1205.0158
1186.3927
1175.5298
1170.4139
1163.4324
706.90531
706.30448
708.53453
713.85273
722.83178
741.49676
774.72757
814.73591
863.62591
905.62016
935.5157
952.06698
956.27463
949.23645
932.43082
906.85138
873.90352
836.5617
801.27844
769.20302
739.986
713.39057
689.1737
666.94956
646.62582
627.9209
610.77226
593.69469
575.83798
558.12559
540.02579
518.58726
496.48968
474.1132
451.6647
429.53536
408.58779
389.66919
372.80533
357.98465
345.23228
334.59056
326.09776
319.87472
315.98889
314.78005
315.86247
315.96023
315.87622
315.9204
315.9475
315.99967
316.04854
316.10522
316.16042
316.21674
316.27067
316.3226
316.37095
316.41552
316.45561
316.49084
316.52088
316.54543
316.56432
316.57732
316.58444
316.58574
316.58131
316.57122
316.55561
316.53463
316.50846
316.47734
316.44146
316.4007
316.35565
316.30645
316.25342
316.19686
316.13706
316.07438
316.00913
315.94158
315.87213
315.80106
315.72865
315.65531
315.5813
315.50692
315.43247
315.35816
315.28432
315.21117
315.13887
315.06771
314.99785
314.92944
314.86279
314.79797
314.73488
314.67379
314.61487
314.55809
314.50358
314.45136
314.40143
314.35386
314.30866
314.26574
314.22539
314.18724
314.15153
314.1182
314.0872
314.0585
314.03206
314.00779
313.98565
313.96556
313.94745
313.93127
313.91699
313.90453
313.89385
313.88487
313.87751
313.87174
313.86745
313.86459
313.86311
313.86291
313.86404
313.86637
313.8699
313.87459
313.88045
313.88742
313.89556
313.90474
313.91525
313.92673
313.93984
313.9539
313.97025
313.98753
314.00825
314.03001
314.05706
314.0858
314.12336
314.16554
314.23979
314.31768
313.97796
315.63323
319.60222
325.85274
334.29702
344.83711
357.53823
372.28528
389.07904
407.87704
428.65933
450.78831
473.14165
495.41446
517.44837
539.00299
559.89233
579.87515
598.72382
616.3476
633.9069
652.74108
673.94155
696.76467
721.66644
748.95103
778.86736
811.63944
847.62594
885.67548
919.31813
946.32285
964.56153
973.22922
970.97799
953.58629
922.44337
884.35597
839.79787
795.67327
763.70778
749.42273
736.01111
725.41315
718.63509
710.16027
468.21448
467.67686
469.1477
474.06878
479.73406
490.46802
508.91032
533.39102
563.81976
591.09742
610.76711
621.7895
624.6405
620.09357
609.13961
592.427
570.96345
546.61847
523.5921
502.65479
483.58499
466.22258
450.4158
435.91906
422.67188
410.48552
399.28664
388.11776
376.38095
364.57346
352.44003
338.44806
324.02966
309.42353
294.77077
280.33468
266.67198
254.32253
243.30792
233.62631
225.29334
218.34646
212.81269
208.80277
206.36738
205.86117
206.95753
207.07123
207.01368
207.08579
207.13669
207.2122
207.28198
207.35805
207.4306
207.50241
207.56983
207.63327
207.69107
207.74298
207.78841
207.82682
207.85799
207.8816
207.89756
207.90554
207.90589
207.89854
207.88371
207.8616
207.8324
207.79639
207.75383
207.70508
207.65034
207.58944
207.52313
207.45184
207.376
207.29603
207.21231
207.12531
207.03542
206.94302
206.8486
206.75252
206.65515
206.55699
206.45835
206.35962
206.26117
206.16325
206.06626
205.97046
205.87607
205.78339
205.69266
205.60404
205.5179
205.4343
205.35308
205.27464
205.19915
205.12656
205.05701
204.99054
204.92713
204.86686
204.80972
204.75561
204.70495
204.65712
204.61253
204.57107
204.53266
204.49728
204.46484
204.43525
204.40844
204.38433
204.36279
204.34379
204.32727
204.31312
204.30132
204.29173
204.28425
204.27886
204.27539
204.2738
204.274
204.27588
204.27949
204.28467
204.29142
204.29966
204.30944
204.32061
204.33334
204.34735
204.3631
204.38002
204.39907
204.41923
204.44236
204.46652
204.49514
204.5248
204.56135
204.59951
204.64877
204.70262
204.7881
204.90708
204.66868
205.71576
208.27484
212.32157
217.80213
224.64927
232.90548
242.49456
253.41762
265.64303
279.15466
293.53519
308.06827
322.55911
336.90803
350.95179
364.58607
377.64851
389.99823
401.58704
413.19085
425.61857
439.56661
454.59335
470.98881
488.9502
508.64233
530.21535
553.87706
578.8553
600.96248
619.22928
631.79648
638.28439
637.77607
628.17844
610.15402
587.42824
561.34322
536.83066
519.62886
510.80964
501.06198
491.06883
482.85692
473.49856
331.46333
330.86457
331.22112
336.04559
339.80185
345.73186
354.80025
369.04695
388.4253
407.03053
420.70817
428.49848
430.55231
427.45492
419.91427
408.37797
393.63165
376.89811
361.0527
346.64332
333.52384
321.57999
310.71199
300.75224
291.65819
283.29649
275.58021
267.88499
259.76643
251.51186
242.98963
233.34618
223.40743
213.33401
203.22964
193.28413
183.87523
175.36199
167.76359
161.08454
155.33567
150.553
146.75872
144.06148
142.5052
142.46183
143.60866
143.74216
143.70831
143.80163
143.87034
143.9615
144.04459
144.1318
144.21332
144.29192
144.36397
144.42992
144.48807
144.5381
144.57969
144.61207
144.63531
144.64899
144.65316
144.64779
144.63306
144.60917
144.57644
144.5352
144.48577
144.42852
144.36386
144.29221
144.21378
144.12845
144.03726
143.9408
143.8396
143.73416
143.62497
143.51257
143.39744
143.28002
143.16087
143.04043
142.91912
142.79748
142.6759
142.55477
142.43451
142.31542
142.19791
142.08227
141.96873
141.85761
141.74917
141.64359
141.54127
141.44223
141.34624
141.2538
141.16507
141.07999
140.99868
140.92118
140.84746
140.77759
140.71155
140.64919
140.59111
140.53638
140.48563
140.43865
140.39537
140.35574
140.31965
140.287
140.2577
140.23164
140.20869
140.1888
140.17188
140.15784
140.14662
140.13806
140.13205
140.12854
140.12738
140.12846
140.13171
140.137
140.14438
140.15366
140.16484
140.17781
140.19266
140.20918
140.22759
140.24753
140.26958
140.29302
140.31906
140.34638
140.37732
140.40943
140.44698
140.48566
140.53278
140.58155
140.64378
140.71094
140.81091
140.95857
140.77001
141.45448
143.18383
145.93697
149.68069
154.36505
160.01963
166.59097
174.07875
182.45957
191.7188
201.56866
211.53142
221.47642
231.33925
240.99865
250.4032
259.43395
267.99981
276.07451
284.24159
292.95478
302.69017
313.1921
324.65133
337.20154
350.95869
366.028
382.52823
399.89336
415.27632
428.47243
437.73948
442.93088
443.34325
437.89537
426.90333
412.63541
396.82196
383.65558
375.89316
372.24592
366.1085
357.63141
348.68699
339.21766
248.09804
247.17067
246.28806
251.10633
253.906
256.94284
259.59981
266.34787
278.53652
291.6553
301.57498
307.34372
308.89691
306.70251
301.29299
292.99271
282.45297
270.49687
259.15949
248.85
239.46979
230.93374
223.17401
216.06981
209.58938
203.63626
198.09694
192.5904
186.75836
180.77583
174.57217
167.64888
160.50997
153.26974
146.0095
138.87374
132.12761
126.01637
120.55806
115.76168
111.63613
108.21788
105.52783
103.67622
102.70331
102.99836
104.19548
104.33634
104.31599
104.41669
104.49039
104.58353
104.66662
104.75159
104.82894
104.90127
104.9651
105.02094
105.06709
105.1031
105.12922
105.14423
105.1486
105.14217
105.12488
105.09696
105.05873
105.01058
104.95297
104.88636
104.81122
104.72803
104.63731
104.53956
104.43486
104.32344
104.20652
104.08476
103.95874
103.82906
103.69623
103.56086
103.42345
103.2845
103.14458
103.00414
102.86363
102.72361
102.58444
102.44654
102.3103
102.17603
102.04413
101.91487
101.78846
101.6652
101.54534
101.42907
101.31677
101.20838
101.10364
101.00308
100.90686
100.81486
100.72721
100.64391
100.56492
100.4903
100.42001
100.35387
100.29256
100.23499
100.18189
100.133
100.08824
100.04755
100.01081
99.977888
99.948702
99.923117
99.900997
99.882277
99.866878
99.854676
99.845637
99.839565
99.83635
99.835925
99.838121
99.842844
99.850004
99.859463
99.871272
99.885225
99.901342
99.919485
99.939769
99.961942
99.986289
100.01236
100.04088
100.07096
100.10406
100.13861
100.17738
100.21749
100.26392
100.31169
100.36927
100.42879
100.50393
100.58473
100.70029
100.87024
100.70601
101.15705
102.36129
104.29879
106.94985
110.27486
114.29576
118.97215
124.30334
130.27137
136.86212
143.8695
150.96634
158.06196
165.11402
172.02763
178.78454
185.29334
191.49057
197.36203
203.41181
209.81759
216.92379
224.60714
232.99221
242.17114
252.22869
263.23917
275.26303
287.83745
298.98021
308.94297
316.05551
320.28254
321.02505
317.70284
310.45267
300.82554
290.78175
284.25853
282.82538
284.00686
281.77862
275.78975
267.13779
258.34547
194.63766
193.04153
191.04679
195.82402
198.41963
199.9824
198.20548
198.88749
206.01672
215.47055
222.91199
227.35078
228.57398
226.97232
222.96374
216.79572
209.02818
200.23482
191.88053
184.28559
177.38277
171.10651
165.40953
160.20082
155.45555
151.10035
146.99467
142.93818
138.62659
134.16624
129.52021
124.38861
119.09283
113.71828
108.33233
103.04975
98.060897
93.535801
89.492362
85.943085
82.896735
80.391334
78.448508
77.181222
76.626187
77.183497
78.408107
78.532117
78.506712
78.59428
78.653952
78.7305
78.795917
78.861712
78.918712
78.969311
79.010184
79.04197
79.062919
79.072422
79.071421
79.058525
79.034335
78.998879
78.952322
78.89505
78.827566
78.750433
78.664258
78.56962
78.467096
78.357276
78.240743
78.117991
77.988977
77.854473
77.715616
77.573101
77.427527
77.279471
77.129476
76.978118
76.825886
76.673254
76.520773
76.368844
76.217889
76.068415
75.920738
75.775236
75.63224
75.492011
75.354896
75.221105
75.090828
74.9643
74.841673
74.723188
74.609153
74.499454
74.39373
74.292538
74.196022
74.104016
74.016621
73.933802
73.855508
73.781782
73.712558
73.647667
73.587712
73.531686
73.480253
73.433157
73.390311
73.351652
73.31704
73.286357
73.259508
73.236355
73.216764
73.200672
73.188002
73.178621
73.172528
73.169513
73.169423
73.17225
73.177803
73.185994
73.196733
73.209885
73.225512
73.243401
73.263592
73.285933
73.31057
73.337224
73.366235
73.3971
73.430637
73.465885
73.504436
73.544627
73.589453
73.635861
73.689236
73.744287
73.810192
73.878555
73.964224
74.056701
74.185873
74.372155
74.219338
74.51147
75.365015
76.759971
78.686056
81.110016
84.048895
87.469485
91.372695
95.74308
100.56695
105.69243
110.89232
116.10214
121.2925
126.39144
131.39414
136.23266
140.85481
145.26727
149.92037
154.82418
160.18438
166.005
172.35911
179.30937
186.91862
195.23746
204.28399
213.62913
221.91836
229.61538
235.148
238.50986
239.15222
236.77298
231.41672
224.28612
217.46653
214.61983
217.35697
222.68604
224.48143
221.64924
214.3546
206.89277
158.57401
156.08958
153.26018
157.87899
160.83964
162.10384
157.50874
152.92378
156.1725
163.06992
168.81515
172.34483
173.34301
172.14732
169.09778
164.3962
158.5266
151.9189
145.62241
139.90128
134.70987
129.99619
125.7267
121.83017
118.28668
115.03243
111.913
108.85118
105.59221
102.18898
98.626731
94.722766
90.689686
86.594331
82.495146
78.486307
74.70612
71.273354
68.206481
65.520987
63.22666
61.363551
59.95514
59.115965
58.878822
59.640541
60.853795
60.929163
60.872493
60.922365
60.945628
60.985276
61.014355
61.044057
61.065244
61.080053
61.08523
61.081585
61.067166
61.041818
61.00607
60.95913
60.901566
60.833581
60.755526
60.667934
60.571447
60.466753
60.354545
60.235473
60.110163
59.97923
59.84325
59.702609
59.55729
59.408459
59.257018
59.103609
58.948769
58.793014
58.63682
58.480683
58.325012
58.170206
58.016721
57.864874
57.715006
57.567526
57.422661
57.280703
57.141897
57.006426
56.874554
56.746411
56.622127
56.501875
56.385692
56.273797
56.166477
56.063554
55.964605
55.87012
55.780242
55.694778
55.613786
55.537211
55.464987
55.397138
55.333583
55.274198
55.219376
55.168405
55.121746
55.07919
55.040656
55.006079
54.975326
54.948287
54.924873
54.904955
54.888411
54.875187
54.865215
54.858362
54.854703
54.853933
54.855987
54.860847
54.868337
54.878383
54.890903
54.905776
54.923079
54.942606
54.964413
54.988357
55.014604
55.042876
55.073542
55.106096
55.141391
55.17847
55.218962
55.261226
55.308307
55.357206
55.413355
55.471602
55.541181
55.613929
55.704845
55.803969
55.940916
56.135257
55.987859
56.168135
56.778714
57.798719
59.224638
61.0272
63.21912
65.773197
68.691149
71.958895
75.563185
79.389696
83.279826
87.186851
91.088235
94.934038
98.719135
102.39679
105.91301
109.31867
112.98645
116.863
121.00109
125.52175
130.4589
135.85329
141.75088
148.18301
155.13427
162.15914
168.43669
174.40443
178.67277
181.20532
181.49876
179.43409
175.02184
169.29154
164.3191
163.2996
168.43487
176.73942
182.25507
182.82489
177.67982
171.96983
132.87615
129.46775
126.14445
130.44376
134.09381
136.01958
130.05451
120.84011
120.77727
125.82582
130.37849
133.26856
134.11002
133.2029
130.83204
127.1752
122.64576
117.6022
112.77401
108.39093
104.42257
100.82672
97.57908
94.6221
91.940173
89.463166
87.049716
84.683763
82.177768
79.529291
76.741654
73.704728
70.563948
67.374061
64.1876
61.08354
58.162719
55.508277
53.13981
51.075495
49.326683
47.935366
46.927248
46.415332
46.429954
47.341593
48.494072
48.488316
48.369117
48.358629
48.32493
48.310977
48.28941
48.271296
48.246849
48.218253
48.181969
48.138536
48.086196
48.024907
47.954937
47.875852
47.788187
47.692238
47.588455
47.477432
47.359856
47.236434
47.107851
46.974727
46.837641
46.697138
46.553691
46.40748
46.258758
46.108648
45.957783
45.806682
45.65576
45.505408
45.355986
45.207859
45.061314
44.916637
44.774155
44.634073
44.496626
44.362101
44.230625
44.102389
43.977541
43.856181
43.738482
43.624499
43.514297
43.407982
43.305524
43.207027
43.11281
43.022679
42.936178
42.853659
42.775286
42.700865
42.63041
42.563863
42.50115
42.442276
42.387163
42.335718
42.288182
42.244074
42.2037
42.166898
42.133599
42.103747
42.077224
42.053938
42.033814
42.01674
42.002616
41.991399
41.983037
41.977413
41.974635
41.974382
41.976649
41.981408
41.988517
41.997919
42.009545
42.023296
42.039256
42.057245
42.077328
42.09938
42.123576
42.149662
42.178009
42.208147
42.240901
42.275395
42.313174
42.352753
42.397001
42.44322
42.496491
42.552227
42.61905
42.689732
42.778345
42.876473
43.012045
43.203235
43.059469
43.160427
43.599421
44.354127
45.425843
46.787165
48.448294
50.386295
52.603236
55.085899
57.821622
60.723043
63.679413
66.656217
69.635499
72.582384
75.491341
78.329266
81.035404
83.719321
86.650368
89.777768
93.025853
96.591987
100.48872
104.74038
109.37935
114.42144
119.82385
125.11363
129.90069
134.49507
137.7203
139.48865
139.38014
137.39318
133.54975
128.76421
124.95623
124.70678
130.74036
140.63656
148.95036
152.82326
150.16535
146.37057
113.49321
109.32266
105.82275
109.65117
114.04643
117.31323
111.2602
98.207958
94.962137
98.628118
102.32701
104.75741
105.48889
104.79422
102.91758
100.02636
96.471441
92.578641
88.828115
85.427822
82.358416
79.584875
77.089139
74.823483
72.773078
70.857607
68.962289
67.092888
65.135733
63.03749
60.814719
58.404427
55.909682
53.377311
50.855681
48.411822
46.118858
44.03498
42.181232
40.578189
39.238818
38.206323
37.508018
37.25113
37.469038
38.472671
39.511027
39.400965
39.188362
39.104422
39.001454
38.926879
38.850093
38.78232
38.712488
38.642602
38.568642
38.490779
38.40727
38.317989
38.222962
38.121883
38.015176
37.903106
37.786094
37.66467
37.539447
37.411034
37.279998
37.14683
37.011975
36.875824
36.738671
36.600528
36.461913
36.323603
36.185994
36.049449
35.914232
35.780592
35.648752
35.518937
35.391309
35.266036
35.143318
35.023257
34.905987
34.791685
34.680392
34.572212
34.467214
34.365434
34.266966
34.171813
34.079991
33.991553
33.906441
33.824656
33.74649
33.671845
33.600255
33.531901
33.466977
33.405316
33.346901
33.291679
33.239577
33.190595
33.144659
33.101704
33.061878
33.024853
32.990839
32.959713
32.931422
32.905921
32.883115
32.862933
32.845315
32.830174
32.817428
32.80705
32.799001
32.793195
32.789711
32.788316
32.788993
32.791722
32.796398
32.802984
32.811416
32.821624
32.833692
32.847466
32.863014
32.880236
32.899297
32.919981
32.942633
32.966844
32.993359
33.021431
33.052418
33.085085
33.121941
33.160751
33.205931
33.253731
33.311639
33.373823
33.452555
33.541577
33.665822
33.841808
33.702407
33.748185
34.065559
34.630564
35.447202
36.489695
37.766401
39.257438
40.964986
42.876539
44.98025
47.208713
49.484587
51.781831
54.085657
56.371198
58.632757
60.845181
62.944252
65.091036
67.445879
69.990246
72.574507
75.40975
78.509618
81.886357
85.561425
89.539106
93.755247
97.725643
101.37502
104.87898
107.2631
108.39071
107.97549
106.0623
102.71411
98.72845
95.761805
95.756487
101.60564
111.76769
121.66182
128.23267
128.06208
126.11177
98.084414
93.444994
90.020472
93.284815
98.26764
103.23127
98.111283
82.325804
75.747603
78.308067
81.389156
83.484242
84.139134
83.606624
82.09939
79.783375
76.956471
73.93004
70.989721
68.32867
65.935717
63.78119
61.851084
60.105293
58.523086
57.019921
55.512998
54.001531
52.4478
50.756982
48.952208
47.002765
44.984913
42.940277
40.913934
38.962912
37.139462
35.484325
34.020019
32.768994
31.745556
30.992637
30.53761
30.481243
30.856009
31.893301
32.770921
32.544967
32.224033
32.066164
31.895374
31.765677
31.641021
31.532735
31.427931
31.328166
31.228799
31.129485
31.028357
30.92502
30.819232
30.710627
30.599431
30.485762
30.369907
30.252236
30.133195
30.013215
29.89268
29.771904
29.651151
29.53063
29.410434
29.290579
29.171568
29.053843
28.937615
28.823098
28.710426
28.599721
28.491096
28.384659
28.280478
28.178627
28.079212
27.982259
27.887835
27.796033
27.706843
27.620311
27.536454
27.455272
27.37681
27.301041
27.227955
27.157574
27.089833
27.024693
26.962357
26.902857
26.84578
26.791128
26.739125
26.689649
26.642659
26.598116
26.555957
26.51618
26.478723
26.443542
26.410728
26.380061
26.351686
26.325513
26.301504
26.279628
26.25981
26.242
26.226152
26.212198
26.200078
26.189773
26.181257
26.174471
26.169466
26.166065
26.164289
26.16408
26.16538
26.168167
26.172379
26.17797
26.185016
26.193391
26.203155
26.214229
26.22676
26.240571
26.255958
26.272588
26.291083
26.31085
26.333005
26.356587
26.383659
26.412483
26.446668
26.483361
26.528675
26.578275
26.642194
26.716401
26.822059
26.97373
26.840605
26.84947
27.080916
27.509615
28.141004
28.950775
29.945756
31.1085
32.44107
33.931729
35.569621
37.302418
39.075896
40.869932
42.671988
44.463843
46.239598
47.978052
49.619517
51.356145
53.249288
55.318903
57.398621
59.66365
62.137222
64.826874
67.745678
70.890412
74.182408
77.151734
79.930549
82.587513
84.327652
84.979314
84.401912
82.646091
79.810083
76.563814
74.261744
74.292039
79.36521
88.79712
99.058112
107.36079
109.46823
109.09064
85.305641
80.528301
77.356502
80.041782
85.340292
92.056052
88.574114
71.462986
61.249705
62.824776
65.456736
67.304609
67.907604
67.503698
66.279727
64.405794
62.137161
59.775623
57.457229
55.363602
53.489727
51.809895
50.312567
48.963577
47.729227
46.532885
45.318815
44.067657
42.809017
41.423663
39.931842
38.326159
36.666403
34.990735
33.341172
31.765895
30.301269
28.975888
27.813391
26.837213
26.062633
25.530113
25.264563
25.365673
25.849001
26.864962
27.551348
27.213337
26.791681
26.573077
26.349119
26.180597
26.024493
25.89217
25.768727
25.655105
25.546039
25.440602
25.336751
25.233737
25.131052
25.028172
24.925094
24.821745
24.718235
24.614744
24.51153
24.408832
24.306853
24.205736
24.105585
24.00645
23.908287
23.81118
23.715456
23.621334
23.5289
23.438263
23.349466
23.262545
23.177543
23.094494
23.013407
22.934302
22.857225
22.782167
22.709152
22.638228
22.56936
22.502564
22.437835
22.375154
22.314545
22.255971
22.199414
22.144879
22.092305
22.041656
21.993052
21.946601
21.902
21.859103
21.818147
21.779056
21.741778
21.706291
21.672542
21.64053
21.610208
21.581545
21.554604
21.529231
21.505534
21.483446
21.462945
21.444007
21.426576
21.410617
21.396098
21.382966
21.371176
21.360716
21.351568
21.343693
21.337123
21.331729
21.327525
21.324473
21.322523
21.321669
21.321846
21.323029
21.32528
21.328498
21.33273
21.337915
21.344174
21.351365
21.359732
21.369006
21.379689
21.391322
21.404789
21.419371
21.436688
21.455448
21.478478
21.503716
21.535934