/*--------------------------------*- C++ -*----------------------------------*\
| =========                 |                                                 |
| \\      /  F ield         | OpenFOAM: The Open Source CFD Toolbox           |
|  \\    /   O peration     | Version:  2.4.0                                 |
|   \\  /    A nd           | Web:      www.OpenFOAM.org                      |
|    \\/     M anipulation  |                                                 |
\*---------------------------------------------------------------------------*/
FoamFile
{
    version     2.0;
    format      ascii;
    class       surfaceScalarField;
    location    "20000";
    object      phi;
}
// * * * * * * * * * * * * * * * * * * * * * * * * * * * * * * * * * * * * * //

dimensions      [0 3 -1 0 0 0 0];

internalField   nonuniform List<scalar> 
63640
(
1.026068e-06
-1.8651602e-07
1.2369866e-06
-2.1091869e-07
1.1909395e-06
4.6046919e-08
9.03441e-07
2.8749815e-07
3.9682262e-07
5.0661782e-07
-1.4736141e-07
5.4418339e-07
-4.2819836e-07
2.808366e-07
-4.3236536e-07
4.1671347e-09
-3.3447691e-07
-9.7887857e-08
-2.5559785e-07
-7.8878232e-08
-2.071106e-07
-4.8486597e-08
-1.8354772e-07
-2.3562722e-08
-1.6897046e-07
-1.4577109e-08
-1.5774653e-07
-1.1224173e-08
-1.4734775e-07
-1.0398838e-08
-1.3705471e-07
-1.0292391e-08
-1.2882189e-07
-8.2334674e-09
-1.2440655e-07
-4.4150722e-09
-1.2272598e-07
-1.680129e-09
-1.2366719e-07
9.4001845e-10
-1.2749343e-07
3.8258964e-09
-1.3411464e-07
6.6206984e-09
-1.4395389e-07
9.8387554e-09
-1.5683081e-07
1.2876533e-08
-1.7261906e-07
1.5787814e-08
-1.9049688e-07
1.7877438e-08
-2.0867717e-07
1.8179709e-08
-2.263108e-07
1.7633272e-08
-2.4354702e-07
1.7236173e-08
-2.6004869e-07
1.6501309e-08
-2.7527645e-07
1.5227216e-08
-2.8864377e-07
1.3367631e-08
-2.9948799e-07
1.0844645e-08
-3.0719454e-07
7.7068188e-09
-3.1186742e-07
4.6731511e-09
-3.148914e-07
3.024262e-09
-3.1700272e-07
2.1114825e-09
-3.1658532e-07
-4.1716013e-10
-3.1269201e-07
-3.8931427e-09
-3.0496877e-07
-7.7230858e-09
-2.9290445e-07
-1.206416e-08
-2.7711215e-07
-1.5791729e-08
-2.5859475e-07
-1.8517004e-08
-2.4204978e-07
-1.6544751e-08
-2.3294678e-07
-9.1027958e-09
-2.5997585e-07
2.7029262e-08
-3.632173e-07
1.0324161e-07
-4.5525119e-07
9.203406e-08
-5.3063627e-07
7.5385223e-08
-5.960386e-07
6.540238e-08
-6.5311523e-07
5.7076624e-08
-7.0349915e-07
5.0383783e-08
-7.4855361e-07
4.5054213e-08
-7.8919108e-07
4.063721e-08
-8.262646e-07
3.7073262e-08
-8.6030032e-07
3.4035473e-08
-8.9177661e-07
3.1476129e-08
-9.2098358e-07
2.9206819e-08
-9.4816947e-07
2.7185752e-08
-9.7348341e-07
2.5313912e-08
-9.9704561e-07
2.3562256e-08
-1.0189247e-06
2.1879257e-08
-1.0391718e-06
2.0247319e-08
-1.0578126e-06
1.8640892e-08
-1.0748626e-06
1.7050044e-08
-1.0903246e-06
1.546199e-08
-1.1042027e-06
1.3878067e-08
-1.1165046e-06
1.2301972e-08
-1.1272444e-06
1.0739882e-08
-1.1364394e-06
9.1951821e-09
-1.144109e-06
7.6698651e-09
-1.1502749e-06
6.1662213e-09
-1.154961e-06
4.6863628e-09
-1.1581956e-06
3.2349924e-09
-1.16001e-06
1.814734e-09
-1.160422e-06
4.1228792e-10
-1.1594413e-06
-9.8030491e-10
-1.1570942e-06
-2.3467463e-09
-1.1534175e-06
-3.6764893e-09
-1.1484521e-06
-4.9651858e-09
-1.142237e-06
-6.2148676e-09
-1.1348172e-06
-7.4195274e-09
-1.1262424e-06
-8.5745939e-09
-1.1165516e-06
-9.6907229e-09
-1.105796e-06
-1.0755556e-08
-1.0940296e-06
-1.1766427e-08
-1.0812932e-06
-1.2736385e-08
-1.0676444e-06
-1.3648743e-08
-1.0531398e-06
-1.4504539e-08
-1.0378279e-06
-1.5311951e-08
-1.02177e-06
-1.6058023e-08
-1.0050116e-06
-1.6758513e-08
-9.8760887e-07
-1.7402897e-08
-9.696224e-07
-1.7986658e-08
-9.5109469e-07
-1.8527869e-08
-9.3207822e-07
-1.9016621e-08
-9.1263056e-07
-1.9447798e-08
-8.9279038e-07
-1.9840359e-08
-8.72615e-07
-2.0175579e-08
-8.5216527e-07
-2.0449911e-08
-8.3146682e-07
-2.0698636e-08
-8.1055874e-07
-2.0908261e-08
-7.8949457e-07
-2.1064315e-08
-7.6830499e-07
-2.1189669e-08
-7.4702849e-07
-2.1276665e-08
-7.2570796e-07
-2.1320632e-08
-7.0436758e-07
-2.1340532e-08
-6.8303865e-07
-2.1329022e-08
-6.6175683e-07
-2.1281859e-08
-6.4054224e-07
-2.1214567e-08
-6.194226e-07
-2.1119746e-08
-5.9842555e-07
-2.0997285e-08
-5.7757262e-07
-2.0852999e-08
-5.5689608e-07
-2.0676595e-08
-5.3641399e-07
-2.0482088e-08
-5.1614855e-07
-2.0265641e-08
-4.9612473e-07
-2.0023912e-08
-4.7635622e-07
-1.9768583e-08
-4.568574e-07
-1.9498797e-08
-4.3764817e-07
-1.9209188e-08
-4.1873511e-07
-1.891297e-08
-4.0012853e-07
-1.8606659e-08
-3.8184561e-07
-1.8282926e-08
-3.638956e-07
-1.7950006e-08
-3.4628878e-07
-1.760676e-08
-3.2904133e-07
-1.7247385e-08
-3.1215715e-07
-1.688406e-08
-2.9564981e-07
-1.6507326e-08
-2.7952767e-07
-1.6122079e-08
-2.6380054e-07
-1.5727035e-08
-2.484716e-07
-1.5328871e-08
-2.335566e-07
-1.49149e-08
-2.1906111e-07
-1.4495421e-08
-2.0500575e-07
-1.4055281e-08
-1.9139164e-07
-1.3614061e-08
-1.7825168e-07
-1.3139891e-08
-1.6558431e-07
-1.2667289e-08
-1.5344328e-07
-1.2140943e-08
-1.4181743e-07
-1.1625774e-08
-1.3078789e-07
-1.1029468e-08
-1.2033586e-07
-1.0451966e-08
-1.1058647e-07
-9.7493259e-09
-1.0149853e-07
-9.0878531e-09
-9.3280322e-08
-8.2181232e-09
-8.5848216e-08
-7.4320264e-09
-7.9553568e-08
-6.2945886e-09
-7.4234346e-08
-5.3191667e-09
-7.0493569e-08
-3.7407021e-09
-6.8004266e-08
-2.4892285e-09
-6.7861683e-08
-1.4248938e-10
-6.9405404e-08
1.5437677e-09
-7.463536e-08
5.2299526e-09
-8.1813777e-08
7.1783811e-09
-9.6810968e-08
1.4997182e-08
-1.0311207e-07
6.3011123e-09
-1.0535806e-07
2.2460237e-09
-1.025412e-07
-2.8168346e-09
-9.6381297e-08
-6.1598693e-09
-8.6394233e-08
-9.9870381e-09
-7.3666032e-08
-1.2728163e-08
-5.765514e-08
-1.601082e-08
-3.8836581e-08
-1.8818557e-08
-1.6834755e-08
-2.200184e-08
8.393791e-09
-2.522855e-08
3.7726797e-08
-2.9332984e-08
7.1891168e-08
-3.416436e-08
1.1014768e-07
-3.8256497e-08
1.5185024e-07
-4.1702521e-08
1.96735e-07
-4.4884637e-08
2.4434578e-07
-4.7610717e-08
2.9433949e-07
-4.9993739e-08
3.4589039e-07
-5.1550903e-08
3.9797971e-07
-5.2089307e-08
4.4742042e-07
-4.9440717e-08
4.9285678e-07
-4.5436375e-08
5.3473596e-07
-4.1879203e-08
5.7726624e-07
-4.2530296e-08
6.200133e-07
-4.2747084e-08
6.639159e-07
-4.3902616e-08
7.1034488e-07
-4.6429002e-08
7.6086046e-07
-5.051555e-08
8.1807242e-07
-5.7211942e-08
8.8798405e-07
-6.9911626e-08
9.8354377e-07
-9.5559704e-08
1.1039144e-06
-1.2037064e-07
1.2490647e-06
-1.4515034e-07
1.4255022e-06
-1.7643758e-07
1.6436651e-06
-2.1816292e-07
1.9182466e-06
-2.7458149e-07
2.2637364e-06
-3.4548984e-07
2.6892262e-06
-4.2548989e-07
3.1549502e-06
-4.6572412e-07
3.5390802e-06
-3.8413011e-07
3.5182464e-06
2.0833764e-08
3.0876098e-06
4.3063665e-07
2.4148442e-06
6.7276558e-07
1.775477e-06
6.3936712e-07
1.223124e-06
5.523529e-07
9.3453655e-07
2.8858729e-07
9.4984231e-08
3.4633185e-06
-7.1702119e-07
3.9390384e-06
-6.8663865e-07
3.9257065e-06
5.9378599e-08
2.9699751e-06
1.243229e-06
1.4253364e-06
2.0512559e-06
-3.2952955e-07
2.2990485e-06
-1.2859418e-06
1.2372483e-06
-1.3579304e-06
7.6155761e-08
-1.0628197e-06
-3.9299816e-07
-8.184735e-07
-3.2322355e-07
-6.6461217e-07
-2.0234727e-07
-5.8913135e-07
-9.9043517e-08
-5.4248684e-07
-6.1221608e-08
-5.0677805e-07
-4.6933547e-08
-4.7387174e-07
-4.3305475e-08
-4.4158821e-07
-4.2575562e-08
-4.159083e-07
-3.3914385e-08
-4.0213608e-07
-1.8187363e-08
-3.9726885e-07
-6.5466823e-09
-4.0077416e-07
4.4434686e-09
-4.1346779e-07
1.6518877e-08
-4.3515513e-07
2.8307537e-08
-4.6699027e-07
4.1673416e-08
-5.0849543e-07
5.4381439e-08
-5.5911828e-07
6.6410269e-08
-6.1621128e-07
7.4970247e-08
-6.7425102e-07
7.6219078e-08
-7.3060127e-07
7.3983203e-08
-7.8561253e-07
7.2247498e-08
-8.3830634e-07
6.9194782e-08
-8.8697294e-07
6.3893194e-08
-9.2981556e-07
5.6210496e-08
-9.6479277e-07
4.5822283e-08
-9.9009712e-07
3.3011298e-08
-1.0060995e-06
2.0675712e-08
-1.0170566e-06
1.3981574e-08
-1.0249554e-06
1.0010319e-08
-1.0251763e-06
-1.9596909e-10
-1.0145115e-06
-1.4557759e-08
-9.921883e-07
-3.0046174e-08
-9.5621539e-07
-4.803689e-08
-9.0951027e-07
-6.2496205e-08
-8.5383948e-07
-7.4187271e-08
-8.0733594e-07
-6.3047986e-08
-7.830269e-07
-3.3411547e-08
-8.8146171e-07
1.2546434e-07
-1.1996644e-06
4.2144453e-07
-1.4945244e-06
3.8689439e-07
-1.7309934e-06
3.1185452e-07
-1.938963e-06
2.7337207e-07
-2.1185075e-06
2.3662118e-07
-2.2780004e-06
2.0987664e-07
-2.419899e-06
1.8695264e-07
-2.5482226e-06
1.6896057e-07
-2.6649845e-06
1.5383498e-07
-2.772254e-06
1.4130486e-07
-2.8712859e-06
1.3050793e-07
-2.9631446e-06
1.2106542e-07
-3.048517e-06
1.1255816e-07
-3.1279294e-06
1.047264e-07
-3.2017254e-06
9.7358479e-08
-3.2701446e-06
9.0298688e-08
-3.3333364e-06
8.3439526e-08
-3.3913936e-06
7.6698235e-08
-3.4443633e-06
7.0020007e-08
-3.492264e-06
6.3362788e-08
-3.5351124e-06
5.6726474e-08
-3.5729396e-06
5.0129265e-08
-3.6057938e-06
4.3594291e-08
-3.6337346e-06
3.7136227e-08
-3.6568273e-06
3.0762905e-08
-3.6751448e-06
2.4484072e-08
-3.6887673e-06
1.830921e-08
-3.6977896e-06
1.2257685e-08
-3.7023153e-06
6.3408911e-09
-3.7024016e-06
4.9892456e-10
-3.6980805e-06
-5.3008759e-09
-3.6894388e-06
-1.0988138e-08
-3.6765964e-06
-1.6518644e-08
-3.659684e-06
-2.1877328e-08
-3.6388291e-06
-2.706953e-08
-3.614175e-06
-3.2073428e-08
-3.5858784e-06
-3.6870918e-08
-3.5540684e-06
-4.1500684e-08
-3.5189057e-06
-4.5918251e-08
-3.4805605e-06
-5.011165e-08
-3.4391684e-06
-5.4128512e-08
-3.3949074e-06
-5.7909677e-08
-3.3479584e-06
-6.1453519e-08
-3.2984767e-06
-6.4793795e-08
-3.2466521e-06
-6.7882723e-08
-3.1926342e-06
-7.0776559e-08
-3.136597e-06
-7.3440409e-08
-3.0787307e-06
-7.5853177e-08
-3.0191734e-06
-7.8085384e-08
-2.9580884e-06
-8.0101813e-08
-2.8956552e-06
-8.1881125e-08
-2.8320009e-06
-8.3494919e-08
-2.7673025e-06
-8.4874206e-08
-2.7017497e-06
-8.6002984e-08
-2.6354285e-06
-8.7020018e-08
-2.5684593e-06
-8.7877743e-08
-2.5010087e-06
-8.8515071e-08
-2.4331776e-06
-8.9020914e-08
-2.3650844e-06
-8.9370082e-08
-2.2968634e-06
-8.9541767e-08
-2.2285937e-06
-8.9610319e-08
-2.1603722e-06
-8.9550704e-08
-2.0923103e-06
-8.9343743e-08
-2.0244747e-06
-8.9050135e-08
-1.95695e-06
-8.8644588e-08
-1.8898254e-06
-8.8122157e-08
-1.8231685e-06
-8.7509938e-08
-1.7570795e-06
-8.6765594e-08
-1.6916182e-06
-8.5943385e-08
-1.6268522e-06
-8.5031868e-08
-1.5628609e-06
-8.4015284e-08
-1.4996882e-06
-8.2941395e-08
-1.4373793e-06
-8.1807613e-08
-1.3759961e-06
-8.059237e-08
-1.3155619e-06
-7.9347035e-08
-1.2561079e-06
-7.806064e-08
-1.1976898e-06
-7.6701101e-08
-1.1403363e-06
-7.5303408e-08
-1.0840817e-06
-7.3861323e-08
-1.0289743e-06
-7.235472e-08
-9.7503194e-07
-7.0826208e-08
-9.2229166e-07
-6.9247563e-08
-8.7078713e-07
-6.762652e-08
-8.2054279e-07
-6.597126e-08
-7.715781e-07
-6.4293456e-08
-7.2393265e-07
-6.2560238e-08
-6.7764028e-07
-6.0787688e-08
-6.3274524e-07
-5.8950241e-08
-5.8928287e-07
-5.7076361e-08
-5.4731731e-07
-5.5105374e-08
-5.0689989e-07
-5.3084598e-08
-4.6812902e-07
-5.0911716e-08
-4.310672e-07
-4.8687503e-08
-3.9584684e-07
-4.6249749e-08
-3.6257547e-07
-4.3723273e-08
-3.3143339e-07
-4.0891336e-08
-3.0258113e-07
-3.7939994e-08
-2.7629722e-07
-3.4501946e-08
-2.5283082e-07
-3.0898328e-08
-2.3261881e-07
-2.6506541e-08
-2.1605591e-07
-2.1882002e-08
-2.0385467e-07
-1.5941862e-08
-1.9658775e-07
-9.7560582e-09
-1.9559448e-07
-1.1356591e-09
-2.0161479e-07
7.5641345e-09
-2.1728898e-07
2.0904133e-08
-2.4213904e-07
3.2028413e-08
-2.8798328e-07
6.0841401e-08
-3.0925379e-07
2.7571632e-08
-3.1492293e-07
7.9151924e-09
-3.0629783e-07
-1.1441904e-08
-2.8559696e-07
-2.6860712e-08
-2.5382661e-07
-4.1757378e-08
-2.1251744e-07
-5.40373e-08
-1.6141656e-07
-6.7111696e-08
-1.0097284e-07
-7.9262351e-08
-3.0783933e-08
-9.219076e-08
4.9809211e-08
-1.058217e-07
1.4322015e-07
-1.2274391e-07
2.5173229e-07
-1.426765e-07
3.7295568e-07
-1.5947987e-07
5.0498405e-07
-1.7373086e-07
6.4682643e-07
-1.8672699e-07
7.9726341e-07
-1.9804773e-07
9.5493718e-07
-2.0766754e-07
1.1176766e-06
-2.1429037e-07
1.2817183e-06
-2.1613101e-07
1.4380179e-06
-2.0574025e-07
1.5817037e-06
-1.8912229e-07
1.7150445e-06
-1.7521993e-07
1.8495623e-06
-1.7704815e-07
1.9850771e-06
-1.7826195e-07
2.1239847e-06
-1.8281025e-07
2.2705843e-06
-1.9302866e-07
2.4300346e-06
-2.0996579e-07
2.6098451e-06
-2.3702243e-07
2.8301118e-06
-2.9017836e-07
3.1276216e-06
-3.9306946e-07
3.5026638e-06
-4.9541292e-07
3.9555912e-06
-5.980778e-07
4.5055286e-06
-7.26375e-07
5.1862464e-06
-8.9888081e-07
6.0390113e-06
-1.1273464e-06
7.1136224e-06
-1.420101e-06
8.4236806e-06
-1.7355482e-06
9.8690852e-06
-1.9111288e-06
1.1041401e-05
-1.5564458e-06
1.1066688e-05
-4.4537703e-09
9.8144231e-06
1.6829017e-06
7.8480853e-06
2.6391034e-06
5.8247806e-06
2.6626718e-06
4.1962138e-06
2.1809196e-06
3.1037305e-06
1.3810703e-06
2.6590117e-07
6.4481415e-06
-1.5763352e-06
7.1342726e-06
-1.3727698e-06
7.1834814e-06
1.016954e-08
5.4825256e-06
2.9441844e-06
2.7861939e-06
4.7475869e-06
-3.7384791e-07
5.4590895e-06
-2.1846271e-06
3.048027e-06
-2.3995169e-06
2.910456e-07
-1.9005222e-06
-8.9199232e-07
-1.4723188e-06
-7.5142615e-07
-1.1980847e-06
-4.7658067e-07
-1.0622656e-06
-2.3486243e-07
-9.7843265e-07
-1.4505424e-07
-9.1449687e-07
-1.1086929e-07
-8.5581886e-07
-1.0198323e-07
-7.9854356e-07
-9.9850096e-08
-7.5310221e-07
-7.9356426e-08
-7.2877056e-07
-4.2518856e-08
-7.2060619e-07
-1.4710784e-08
-7.275124e-07
1.1348227e-08
-7.5090696e-07
3.9912732e-08
-7.9050828e-07
6.7908334e-08
-8.4820013e-07
9.9364764e-08
-9.2318193e-07
1.2936281e-07
-1.0143114e-06
1.5753938e-07
-1.1168189e-06
1.7747757e-07
-1.2210014e-06
1.8040126e-07
-1.3221998e-06
1.7518142e-07
-1.4209112e-06
1.7095893e-07
-1.5154747e-06
1.6375805e-07
-1.6028528e-06
1.5127085e-07
-1.6799154e-06
1.3327331e-07
-1.7431256e-06
1.090328e-07
-1.789436e-06
7.9321842e-08
-1.8195884e-06
5.0828162e-08
-1.8409772e-06
3.5370525e-08
-1.8568513e-06
2.5884481e-08
-1.8594713e-06
2.4242357e-09
-1.8430707e-06
-3.095828e-08
-1.8065411e-06
-6.6575559e-08
-1.7462503e-06
-1.0832758e-07
-1.6680544e-06
-1.4069149e-07
-1.5744959e-06
-1.6774544e-07
-1.4999642e-06
-1.3757949e-07
-1.4663412e-06
-6.7034303e-08
-1.6562645e-06
3.1538781e-07
-2.2148339e-06
9.8001413e-07
-2.7409209e-06
9.1298152e-07
-3.1600461e-06
7.3097975e-07
-3.5300741e-06
6.4340006e-07
-3.8482386e-06
5.5478563e-07
-4.1313851e-06
4.9302296e-07
-4.3827973e-06
4.3836459e-07
-4.6102993e-06
3.9646226e-07
-4.8170536e-06
3.6058893e-07
-5.0069733e-06
3.3122428e-07
-5.1821245e-06
3.0565884e-07
-5.3444809e-06
2.8342159e-07
-5.4951993e-06
2.632764e-07
-5.6352449e-06
2.4477197e-07
-5.765205e-06
2.2731857e-07
-5.8855191e-06
2.1061287e-07
-5.9964473e-06
1.9436786e-07
-6.0981636e-06
1.7841458e-07
-6.1907553e-06
1.6261172e-07
-6.2742657e-06
1.4687314e-07
-6.3487327e-06
1.3119341e-07
-6.4142211e-06
1.1561759e-07
-6.4708233e-06
1.001966e-07
-6.5186521e-06
8.4965188e-08
-6.5578302e-06
6.9941214e-08
-6.5884935e-06
5.5147762e-08
-6.6107923e-06
4.0608286e-08
-6.6249027e-06
2.636843e-08
-6.6310169e-06
1.2455463e-08
-6.6292325e-06
-1.285165e-09
-6.6196087e-06
-1.4924206e-08
-6.6023105e-06
-2.8285987e-08
-6.5775565e-06
-4.1272376e-08
-6.5455816e-06
-5.385204e-08
-6.5066177e-06
-6.6033217e-08
-6.460921e-06
-7.7769859e-08
-6.4087714e-06
-8.9020279e-08
-6.3504044e-06
-9.9867641e-08
-6.2861048e-06
-1.1021773e-07
-6.2161757e-06
-1.2004076e-07
-6.1408649e-06
-1.294393e-07
-6.0604852e-06
-1.3828938e-07
-5.9753596e-06
-1.4657897e-07
-5.8857661e-06
-1.5438738e-07
-5.7920386e-06
-1.6161023e-07
-5.6944481e-06
-1.6836723e-07
-5.5932998e-06
-1.7458888e-07
-5.4889305e-06
-1.8022277e-07
-5.381589e-06
-1.85427e-07
-5.2715624e-06
-1.9012862e-07
-5.1591667e-06
-1.9427691e-07
-5.0446324e-06
-1.9802948e-07
-4.928269e-06
-2.0123778e-07
-4.8104102e-06
-2.03862e-07
-4.6912143e-06
-2.0621613e-07
-4.5708908e-06
-2.082014e-07
-4.4497331e-06
-2.0967298e-07
-4.3279238e-06
-2.1083032e-07
-4.2056696e-06
-2.116244e-07
-4.0832074e-06
-2.1200409e-07
-3.9606807e-06
-2.1213718e-07
-3.8382585e-06
-2.1197307e-07
-3.7161379e-06
-2.1146434e-07
-3.5944399e-06
-2.1074812e-07
-3.473312e-06
-2.0977257e-07
-3.3529144e-06
-2.0852003e-07
-3.2333666e-06
-2.0705784e-07
-3.1148446e-06
-2.0528761e-07
-2.997457e-06
-2.0333104e-07
-2.8813214e-06
-2.0116772e-07
-2.7665789e-06
-1.9875788e-07
-2.6533083e-06
-1.9621205e-07
-2.5415897e-06
-1.935262e-07
-2.4315318e-06
-1.9065019e-07
-2.323179e-06
-1.8769979e-07
-2.2165858e-06
-1.8465394e-07
-2.1118516e-06
-1.8143534e-07
-2.0090284e-06
-1.7812652e-07
-1.9081778e-06
-1.7471194e-07
-1.809384e-06
-1.7114842e-07
-1.7126836e-06
-1.6752643e-07
-1.6181378e-06
-1.6379333e-07
-1.5258124e-06
-1.5995195e-07
-1.4357466e-06
-1.5603691e-07
-1.3479823e-06
-1.5205765e-07
-1.2625836e-06
-1.479588e-07
-1.1796227e-06
-1.4374853e-07
-1.0991641e-06
-1.3940878e-07
-1.0212945e-06
-1.3494586e-07
-9.4610048e-07
-1.3029935e-07
-8.7371458e-07
-1.254704e-07
-8.0426145e-07
-1.2036475e-07
-7.3792386e-07
-1.15025e-07
-6.7484958e-07
-1.0932395e-07
-6.1535055e-07
-1.0322223e-07
-5.5959541e-07
-9.6646403e-08
-5.0807888e-07
-8.9456417e-08
-4.6102705e-07
-8.1553683e-08
-4.1925268e-07
-7.2672605e-08
-3.8305377e-07
-6.270539e-08
-3.5378346e-07
-5.1152243e-08
-3.3186042e-07
-3.7864818e-08
-3.1945603e-07
-2.2160367e-08
-3.1743097e-07
-3.1606129e-09
-3.2913755e-07
1.9270771e-08
-3.5664553e-07
4.8412109e-08
-4.0281503e-07
7.8197874e-08
-4.8308873e-07
1.4111511e-07
-5.2175779e-07
6.6240693e-08
-5.3054262e-07
1.6700065e-08
-5.1510947e-07
-2.6875024e-08
-4.7714273e-07
-6.4827419e-08
-4.2026087e-07
-9.8639209e-08
-3.4580527e-07
-1.2849286e-07
-2.5437631e-07
-1.5854064e-07
-1.4599853e-07
-1.8764018e-07
-2.0519427e-08
-2.1766987e-07
1.2362963e-07
-2.4997075e-07
2.904776e-07
-2.8959186e-07
4.8402169e-07
-3.3622058e-07
7.000038e-07
-3.7546196e-07
9.3515195e-07
-4.0887897e-07
1.1875928e-06
-4.3916779e-07
1.4553119e-06
-4.6576694e-07
1.7356974e-06
-4.8805301e-07
2.0251967e-06
-5.0378963e-07
2.3167065e-06
-5.0764081e-07
2.595025e-06
-4.840588e-07
2.8512011e-06
-4.4529845e-07
3.089875e-06
-4.1389383e-07
3.3299266e-06
-4.1709979e-07
3.5719754e-06
-4.2031071e-07
3.8198882e-06
-4.307231e-07
4.0812363e-06
-4.5437679e-07
4.3653571e-06
-4.940866e-07
4.6851827e-06
-5.5684802e-07
5.0770902e-06
-6.8208587e-07
5.6026504e-06
-9.1862967e-07
6.2646945e-06
-1.157457e-06
7.0642851e-06
-1.3976685e-06
8.0339829e-06
-1.6960728e-06
9.233139e-06
-2.098037e-06
1.073e-05
-2.6242074e-06
1.2612416e-05
-3.3025176e-06
1.4891747e-05
-4.0148791e-06
1.7406145e-05
-4.4255269e-06
1.9435545e-05
-3.5858454e-06
1.9580325e-05
-1.4923417e-07
1.7530098e-05
3.7331288e-06
1.4243143e-05
5.926058e-06
1.071101e-05
6.1948053e-06
7.9095614e-06
4.9823678e-06
5.8426396e-06
3.447992e-06
5.1971287e-07
1.0052673e-05
-2.7371727e-06
1.0948444e-05
-2.2685405e-06
1.1020725e-05
-6.2111879e-08
8.5330858e-06
5.4318235e-06
4.5484197e-06
8.7322523e-06
-2.2255175e-07
1.023006e-05
-3.1029745e-06
5.9284491e-06
-3.5580853e-06
7.4615619e-07
-2.8569538e-06
-1.5931233e-06
-2.2263661e-06
-1.3820131e-06
-1.8162537e-06
-8.8669257e-07
-1.6108589e-06
-4.4025722e-07
-1.4842141e-06
-2.7169894e-07
-1.3879586e-06
-2.0712496e-07
-1.3000148e-06
-1.8992683e-07
-1.2145708e-06
-1.8529365e-07
-1.1469408e-06
-1.4698755e-07
-1.1108861e-06
-7.8573862e-08
-1.0994285e-06
-2.6167767e-08
-1.1108122e-06
2.2730012e-08
-1.1470935e-06
7.6193098e-08
-1.2078906e-06
1.2870484e-07
-1.2958503e-06
1.8732383e-07
-1.4097632e-06
2.4327532e-07
-1.5477252e-06
2.9550096e-07
-1.7025173e-06
3.3226964e-07
-1.85979e-06
3.3767383e-07
-2.012598e-06
3.2798919e-07
-2.161556e-06
3.1991715e-07
-2.3042424e-06
3.0644433e-07
-2.4361714e-06
2.8319954e-07
-2.5527375e-06
2.4983961e-07
-2.6488105e-06
2.0510621e-07
-2.7200871e-06
1.5059845e-07
-2.7678047e-06
9.8545843e-08
-2.8027258e-06
7.0291646e-08
-2.8294343e-06
5.2592933e-08
-2.8368532e-06
9.8432935e-09
-2.8164899e-06
-5.1321381e-08
-2.7668695e-06
-1.1619589e-07
-2.6828298e-06
-1.9236711e-07
-2.5734329e-06
-2.5008776e-07
-2.4429155e-06
-2.982624e-07
-2.343509e-06
-2.3698565e-07
-2.3104583e-06
-1.000848e-07
-2.6128132e-06
6.1774298e-07
-3.4413843e-06
1.8085855e-06
-4.22708e-06
1.6986775e-06
-4.852979e-06
1.3568789e-06
-5.4052092e-06
1.1956304e-06
-5.8795059e-06
1.0290823e-06
-6.3015043e-06
9.1502129e-07
-6.6759583e-06
8.1281832e-07
-7.0146925e-06
7.3519625e-07
-7.3223361e-06
6.6823233e-07
-7.6047649e-06
6.136529e-07
-7.8650124e-06
5.6590614e-07
-8.1060302e-06
5.2443937e-07
-8.3295217e-06
4.8676784e-07
-8.5369288e-06
4.5217909e-07
-8.7291203e-06
4.1951024e-07
-8.9067572e-06
3.8824995e-07
-9.0702297e-06
3.5784075e-07
-9.2198064e-06
3.2799141e-07
-9.3556267e-06
2.9843213e-07
-9.4777697e-06
2.6901625e-07
-9.5863064e-06
2.3973011e-07
-9.681347e-06
2.106583e-07
-9.7630413e-06
1.8189107e-07
-9.8315682e-06
1.5349227e-07
-9.8871212e-06
1.2549456e-07
-9.929914e-06
9.7940942e-08
-9.9601823e-06
7.087695e-08
-9.9782017e-06
4.4388238e-08
-9.9842698e-06
1.8523928e-08
-9.97852e-06
-7.034563e-09
-9.9610469e-06
-3.2396886e-08
-9.9321214e-06
-5.7211117e-08
-9.8920766e-06
-8.1316869e-08
-9.8412682e-06
-1.0466022e-07
-9.7800503e-06
-1.2725082e-07
-9.7088084e-06
-1.4901153e-07
-9.6279632e-06
-1.698653e-07
-9.5378745e-06
-1.8995623e-07
-9.4389676e-06
-2.0912462e-07
-9.3316966e-06
-2.2731177e-07
-9.2164399e-06
-2.44696e-07
-9.0936613e-06
-2.61068e-07
-8.9638455e-06
-2.7639477e-07
-8.8274089e-06
-2.9082399e-07
-8.6848477e-06
-3.0417154e-07
-8.5365714e-06
-3.1664375e-07
-8.3830318e-06
-3.2812874e-07
-8.2247292e-06
-3.3852558e-07
-8.0620402e-06
-3.4811621e-07
-7.8953884e-06
-3.5678062e-07
-7.7252428e-06
-3.6442275e-07
-7.5519519e-06
-3.7132057e-07
-7.3759718e-06
-3.7721811e-07
-7.1977966e-06
-3.8203748e-07
-7.0176684e-06
-3.8634456e-07
-6.8358948e-06
-3.8997521e-07
-6.6529099e-06
-3.9265812e-07
-6.4689903e-06
-3.9475004e-07
-6.28444e-06
-3.9617489e-07
-6.0996099e-06
-3.9683428e-07
-5.9147176e-06
-3.9702963e-07
-5.7300118e-06
-3.9667905e-07
-5.5457855e-06
-3.9569066e-07
-5.362222e-06
-3.9431158e-07
-5.1795387e-06
-3.9245595e-07
-4.9979763e-06
-3.9008273e-07
-4.8177121e-06
-3.8732214e-07
-4.639007e-06
-3.8399268e-07
-4.4620253e-06
-3.8031276e-07
-4.2869398e-06
-3.7625345e-07
-4.1139608e-06
-3.7173695e-07
-3.9432074e-06
-3.6696553e-07
-3.774798e-06
-3.6193554e-07
-3.6088945e-06
-3.5655362e-07
-3.445566e-06
-3.5102817e-07
-3.2848936e-06
-3.4532643e-07
-3.1270263e-06
-3.3930259e-07
-2.9720435e-06
-3.3310926e-07
-2.820037e-06
-3.2671841e-07
-2.6711325e-06
-3.2005281e-07
-2.5253887e-06
-3.1327009e-07
-2.3828941e-06
-3.0628787e-07
-2.2437512e-06
-2.9909471e-07
-2.1080182e-06
-2.9176981e-07
-1.975762e-06
-2.8431377e-07
-1.8470772e-06
-2.7664345e-07
-1.7220787e-06
-2.6874696e-07
-1.6008572e-06
-2.6063015e-07
-1.4835574e-06
-2.5224558e-07
-1.3702955e-06
-2.4356117e-07
-1.2612943e-06
-2.3447145e-07
-1.1567146e-06
-2.2494442e-07
-1.0568715e-06
-2.14868e-07
-9.6194048e-07
-2.0425485e-07
-8.7245612e-07
-1.9270652e-07
-7.8859192e-07
-1.8051052e-07
-7.1120351e-07
-1.668447e-07
-6.4048825e-07
-1.5226885e-07
-5.7786594e-07
-1.3529481e-07
-5.2352926e-07
-1.1704201e-07
-4.7985866e-07
-9.4822774e-08
-4.4703178e-07
-7.0691598e-08
-4.2892708e-07
-4.0264976e-08
-4.260043e-07
-6.0832812e-09
-4.4440478e-07
3.767132e-08
-4.8581884e-07
8.982615e-08
-5.5677535e-07
1.4915435e-07
-6.7594788e-07
2.6028762e-07
-7.3400596e-07
1.2429879e-07
-7.4586544e-07
2.8559566e-08
-7.2206002e-07
-5.0680403e-08
-6.6397073e-07
-1.2291668e-07
-5.7803706e-07
-1.8457286e-07
-4.6549278e-07
-2.4103711e-07
-3.2782833e-07
-2.9620511e-07
-1.6464143e-07
-3.508272e-07
2.396361e-08
-4.0627492e-07
2.4057244e-07
-4.6657958e-07
4.910298e-07
-5.4004921e-07
7.8112885e-07
-6.2631963e-07
1.1045518e-06
-6.9888492e-07
1.4565082e-06
-7.6083533e-07
1.8341456e-06
-8.1680522e-07
2.2345367e-06
-8.6615815e-07
2.6536877e-06
-9.0720397e-07
3.0864629e-06
-9.3656491e-07
3.5220574e-06
-9.4323525e-07
3.9385577e-06
-9.0055912e-07
4.3226908e-06
-8.2943165e-07
4.6815979e-06
-7.7280091e-07
5.0419512e-06
-7.7745316e-07
5.4053263e-06
-7.8368579e-07
5.7772923e-06
-8.0268915e-07
6.1690184e-06
-8.4610297e-07
6.5944536e-06
-9.1952181e-07
7.0727919e-06
-1.0351863e-06
7.658249e-06
-1.2675429e-06
8.4388313e-06
-1.699212e-06
9.4207869e-06
-2.1394128e-06
1.0606557e-05
-2.5834383e-06
1.2043087e-05
-3.1326035e-06
1.3816538e-05
-3.8714874e-06
1.6023707e-05
-4.8313766e-06
1.8789385e-05
-6.0681954e-06
2.2121698e-05
-7.3471925e-06
2.5786229e-05
-8.0900581e-06
2.8754743e-05
-6.5543594e-06
2.9101845e-05
-4.9633619e-07
2.6319544e-05
6.5154296e-06
2.1697499e-05
1.0548103e-05
1.6580181e-05
1.1312124e-05
1.2467083e-05
9.0954653e-06
9.3209991e-06
6.5940759e-06
9.4887573e-07
1.4385951e-05
-4.1523564e-06
1.5482792e-05
-3.3653812e-06
1.5524032e-05
-1.0335222e-07
1.2212806e-05
8.7430487e-06
6.7991785e-06
1.4145879e-05
1.9533523e-07
1.6833903e-05
-4.0102464e-06
1.013403e-05
-4.8342793e-06
1.5701892e-06
-3.9416981e-06
-2.485704e-06
-3.0910524e-06
-2.2326581e-06
-2.528842e-06
-1.4489024e-06
-2.2437642e-06
-7.2533476e-07
-2.0681221e-06
-4.4734038e-07
-1.9350792e-06
-3.4016715e-07
-1.8141165e-06
-3.1088866e-07
-1.6971561e-06
-3.0225312e-07
-1.6048213e-06
-2.3932294e-07
-1.5558942e-06
-1.275008e-07
-1.5412943e-06
-4.0767547e-08
-1.5585044e-06
3.9938796e-08
-1.6102469e-06
1.2793466e-07
-1.6960264e-06
2.144837e-07
-1.819267e-06
3.105638e-07
-1.9782472e-06
4.0225475e-07
-2.170092e-06
4.8734544e-07
-2.3847687e-06
5.4694621e-07
-2.6027978e-06
5.5570268e-07
-2.8146722e-06
5.3986354e-07
-3.0210828e-06
5.2632789e-07
-3.2187932e-06
5.0415479e-07
-3.4017157e-06
4.6612177e-07
-3.5636521e-06
4.1177624e-07
-3.6978079e-06
3.3926221e-07
-3.7986429e-06
2.5143349e-07
-3.8680373e-06
1.6794016e-07
-3.9203354e-06
1.2258984e-07
-3.9615043e-06
9.3761799e-08
-3.9769374e-06
2.5276492e-08
-3.9552866e-06
-7.2972153e-08
-3.8946903e-06
-1.767921e-07
-3.7886526e-06
-2.9840463e-07
-3.649728e-06
-3.8901195e-07
-3.4850035e-06
-4.6298667e-07
-3.3661478e-06
-3.558412e-07
-3.3471017e-06
-1.1913073e-07
-3.7860903e-06
1.0567316e-06
-4.915679e-06
2.9381742e-06
-5.9907385e-06
2.7737371e-06
-6.8490584e-06
2.2151988e-06
-7.6046445e-06
1.9512163e-06
-8.2535006e-06
1.6779382e-06
-8.8302444e-06
1.4917648e-06
-9.3418842e-06
1.3244578e-06
-9.804399e-06
1.1977106e-06
-1.0224251e-05
1.0880843e-06
-1.0609383e-05
9.9878439e-07
-1.096397e-05
9.2049205e-07
-1.1292003e-05
8.5247297e-07
-1.1595819e-05
7.9058267e-07
-1.187737e-05
7.3373063e-07
-1.2137851e-05
6.7999094e-07
-1.2378165e-05
6.2856402e-07
-1.2598856e-05
5.7853173e-07
-1.2800301e-05
5.2943646e-07
-1.2982708e-05
4.8083871e-07
-1.3146205e-05
4.3251284e-07
-1.3290911e-05
3.8443578e-07
-1.3416997e-05
3.3674403e-07
-1.3524685e-05
2.8957938e-07
-1.3614236e-05
2.4304386e-07
-1.3685932e-05
1.9719021e-07
-1.3740079e-05
1.520887e-07
-1.3777019e-05
1.078168e-07
-1.3797147e-05
6.4516273e-08
-1.3800877e-05
2.2254356e-08
-1.3788373e-05
-1.9538034e-08
-1.3759783e-05
-6.0986963e-08
-1.3715515e-05
-1.0147821e-07
-1.3656037e-05
-1.4079451e-07
-1.3581844e-05
-1.7885337e-07
-1.3493431e-05
-2.1566314e-07
-1.3391332e-05
-2.5111085e-07
-1.3276127e-05
-2.8507024e-07
-1.314832e-05
-3.1776289e-07
-1.3008494e-05
-3.4895032e-07
-1.2857275e-05
-3.7853093e-07
-1.2695191e-05
-4.0677972e-07
-1.2522875e-05
-4.3338456e-07
-1.2340992e-05
-4.5827719e-07
-1.2150116e-05
-4.817e-07
-1.1950923e-05
-5.0336445e-07
-1.174398e-05
-5.2358676e-07
-1.1529901e-05
-5.4220796e-07
-1.1309368e-05
-5.5905861e-07
-1.1082903e-05
-5.7458161e-07
-1.0851079e-05
-5.8860449e-07
-1.0614535e-05
-6.0096688e-07
-1.0373754e-05
-6.12102e-07
-1.0129351e-05
-6.2162099e-07
-9.8819992e-06
-6.2938983e-07
-9.6320361e-06
-6.3630784e-07
-9.3798762e-06
-6.4213534e-07
-9.1261088e-06
-6.4642566e-07
-8.8711175e-06
-6.4974143e-07
-8.6153123e-06
-6.5198022e-07
-8.3591705e-06
-6.5297621e-07
-8.1029938e-06
-6.5320648e-07
-7.847118e-06
-6.5255498e-07
-7.5919429e-06
-6.5086575e-07
-7.3377227e-06
-6.4853181e-07
-7.0847517e-06
-6.45427e-07
-6.8333613e-06
-6.4147346e-07
-6.5837928e-06
-6.3689071e-07
-6.3364014e-06
-6.3138414e-07
-6.0914142e-06
-6.2529996e-07
-5.8490647e-06
-6.1860319e-07
-5.6096401e-06
-6.1116168e-07
-5.3733055e-06
-6.0330024e-07
-5.1402215e-06
-5.9501953e-07
-4.9106095e-06
-5.8616554e-07
-4.6845679e-06
-5.7706971e-07
-4.4622077e-06
-5.6768672e-07
-4.2437339e-06
-5.577764e-07
-4.0292577e-06
-5.4758551e-07
-3.8189043e-06
-5.3707172e-07
-3.6128471e-06
-5.2610997e-07
-3.4111704e-06
-5.149466e-07
-3.213994e-06
-5.0346436e-07
-3.0214622e-06
-4.9162646e-07
-2.8336561e-06
-4.7957584e-07
-2.6506711e-06
-4.6729862e-07
-2.4726396e-06
-4.5467485e-07
-2.2997236e-06
-4.4166289e-07
-2.1320472e-06
-4.2830645e-07
-1.96982e-06
-4.1447271e-07
-1.8131971e-06
-4.0018404e-07
-1.6625006e-06
-3.8516788e-07
-1.5179393e-06
-3.6950563e-07
-1.3799732e-06
-3.5283394e-07
-1.2488215e-06
-3.3540648e-07
-1.1252583e-06
-3.1626968e-07
-1.0094845e-06
-2.962842e-07
-9.0274074e-07
-2.735884e-07
-8.0522904e-07
-2.4978045e-07
-7.1901444e-07
-2.2150932e-07
-6.4423416e-07
-1.9182222e-07
-5.8435372e-07
-1.5470315e-07
-5.3939128e-07
-1.1565395e-07
-5.1501968e-07
-6.4636489e-08
-5.1141856e-07
-9.6843053e-09
-5.376615e-07
6.3914331e-08
-5.9533004e-07
1.4749468e-07
-6.9493517e-07
2.4875945e-07
-8.5774324e-07
4.230957e-07
-9.3719821e-07
2.0375377e-07
-9.5194382e-07
4.3305213e-08
-9.1789975e-07
-8.4724437e-08
-8.3646636e-07
-2.0435003e-07
-7.17093e-07
-3.0394618e-07
-5.6102008e-07
-3.9710998e-07
-3.7064951e-07
-4.8657566e-07
-1.4516512e-07
-5.7631164e-07
1.1505676e-07
-6.6649679e-07
4.1374e-07
-7.6526281e-07
7.5875789e-07
-8.8506707e-07
1.1577456e-06
-1.0253074e-06
1.6021397e-06
-1.143279e-06
2.0854827e-06
-1.2441783e-06
2.6038445e-06
-1.335167e-06
3.1532477e-06
-1.4155614e-06
3.7282073e-06
-1.4821636e-06
4.3217873e-06
-1.5301449e-06
4.9191251e-06
-1.5405731e-06
5.4910819e-06
-1.4725159e-06
6.0198494e-06
-1.3581992e-06
6.5151643e-06
-1.2681158e-06
7.0117912e-06
-1.27408e-06
7.5124573e-06
-1.2843519e-06
8.0246893e-06
-1.3149212e-06
8.5635597e-06
-1.3849734e-06
9.1480492e-06
-1.5040113e-06
9.8044953e-06
-1.6916324e-06
1.0606374e-05
-2.0694219e-06
1.1669592e-05
-2.7624298e-06
1.3004919e-05
-3.4747395e-06
1.4616867e-05
-4.1953868e-06
1.6567695e-05
-5.083431e-06
1.8970911e-05
-6.274704e-06
2.1953e-05
-7.8134658e-06
2.5673141e-05
-9.788336e-06
3.0135265e-05
-1.1809316e-05
3.5022861e-05
-1.2977655e-05
3.9013053e-05
-1.0544551e-05
3.9663398e-05
-1.1466819e-06
3.6250064e-05
9.9287639e-06
3.031573e-05
1.6482437e-05
2.3568283e-05
1.805957e-05
1.8011884e-05
1.4651865e-05
1.3688327e-05
1.0917632e-05