/*--------------------------------*- C++ -*----------------------------------*\
| =========                 |                                                 |
| \\      /  F ield         | OpenFOAM: The Open Source CFD Toolbox           |
|  \\    /   O peration     | Version:  2.4.0                                 |
|   \\  /    A nd           | Web:      www.OpenFOAM.org                      |
|    \\/     M anipulation  |                                                 |
\*---------------------------------------------------------------------------*/
FoamFile
{
    version     2.0;
    format      ascii;
    class       volVectorField;
    location    "20000";
    object      wallShearStress;
}
// * * * * * * * * * * * * * * * * * * * * * * * * * * * * * * * * * * * * * //

dimensions      [0 2 -2 0 0 0 0];

internalField   uniform (0 0 0);

boundaryField
{
    inlet
    {
        type            cyclic;
    }
    outlet
    {
        type            cyclic;
    }
    top
    {
        type            calculated;
        value           nonuniform List<vector> 
200
(
(-0.0058311297 9.7543716e-07 9.0735655e-22)
(-0.003229071 4.8736273e-07 8.2736875e-22)
(-0.0049491105 -1.4967132e-06 1.1601958e-25)
(-0.0041771836 9.5987291e-07 -3.1815133e-24)
(-0.0044626193 -3.3503618e-07 -2.2414053e-25)
(-0.0043367183 1.5161053e-07 1.4224457e-28)
(-0.0043761821 -8.1486158e-08 5.6260379e-11)
(-0.0043572998 -1.9048929e-08 5.8102699e-11)
(-0.0043645399 -4.0828359e-08 -1.1052854e-23)
(-0.0043602326 -2.4648094e-09 -4.283781e-25)
(-0.0043579565 2.3453979e-08 1.4595043e-25)
(-0.0043522655 5.9181361e-08 6.6619777e-11)
(-0.0043453463 9.2189213e-08 6.8596416e-11)
(-0.0043366782 1.2556168e-07 1.7701434e-23)
(-0.0043267248 1.562147e-07 -6.5627972e-25)
(-0.0043156547 1.8406982e-07 -1.8755319e-28)
(-0.0043037174 2.1027227e-07 1.5322261e-22)
(-0.0042906293 2.3514216e-07 1.3738331e-22)
(-0.004276462 2.5484325e-07 -3.7679707e-23)
(-0.0042617288 2.7005438e-07 1.4723391e-22)
(-0.0042465174 2.8239125e-07 5.6119883e-22)
(-0.0042308968 2.9252201e-07 3.7288727e-22)
(-0.0042148638 3.0081317e-07 5.2626418e-23)
(-0.0041984338 3.0710026e-07 4.705494e-23)
(-0.0041816758 3.1111031e-07 -5.0781748e-23)
(-0.0041646372 3.1290477e-07 4.8123531e-23)
(-0.0041474461 3.1176703e-07 3.2255665e-24)
(-0.0041303216 3.0966726e-07 -5.5634344e-23)
(-0.0041131091 3.0759822e-07 4.321692e-22)
(-0.0040957168 3.0477676e-07 9.7414667e-22)
(-0.0040781399 3.0064141e-07 4.9150044e-22)
(-0.0040604238 2.955813e-07 9.1490532e-11)
(-0.0040424994 2.8923389e-07 9.21584e-11)
(-0.0040244855 2.8168206e-07 5.437732e-23)
(-0.0040063476 2.7395812e-07 -4.7810236e-23)
(-0.0039880657 2.6677099e-07 -2.3673116e-29)
(-0.0039693894 2.5981611e-07 9.3340376e-11)
(-0.0039503975 2.503588e-07 9.3755417e-11)
(-0.0039312705 2.3968819e-07 -1.2622008e-22)
(-0.0039120934 2.2842846e-07 -8.7332065e-30)
(-0.0038928692 2.1653863e-07 -4.8018167e-22)
(-0.0038737555 2.0461755e-07 -5.0849475e-22)
(-0.0038546427 1.9205813e-07 -6.0314947e-23)
(-0.0038359126 1.8015772e-07 1.6158936e-22)
(-0.0038170199 1.6477304e-07 2.41419e-22)
(-0.0037994403 1.6354646e-07 -2.413324e-22)
(-0.0037777692 1.7331123e-07 -2.7250731e-22)
(-0.0037555898 1.2348619e-07 -1.3667227e-23)
(-0.0037376475 9.8801775e-08 3.2118851e-26)
(-0.0037196935 8.5952491e-08 -1.9927836e-22)
(-0.0037022852 7.5840888e-08 -2.0042907e-22)
(-0.003684995 6.7817554e-08 -3.0331103e-30)
(-0.0036678315 6.107767e-08 4.0050642e-30)
(-0.0036507027 5.5440532e-08 -4.0050642e-30)
(-0.0036335818 5.0495259e-08 1.84721e-22)
(-0.0036164645 4.5953321e-08 1.9655071e-22)
(-0.0035993599 4.1773121e-08 6.4207377e-24)
(-0.0035822783 3.8038195e-08 -6.4207736e-24)
(-0.0035652131 3.4695239e-08 5.6577636e-30)
(-0.003548185 3.1738201e-08 6.0839362e-30)
(-0.0035311825 2.90852e-08 3.0861372e-24)
(-0.0035142462 2.6782623e-08 -3.0861577e-24)
(-0.0034973504 2.4950106e-08 -3.2421727e-30)
(-0.0034805184 2.3422577e-08 1.7787614e-22)
(-0.0034637553 2.2175394e-08 1.7984429e-22)
(-0.0034470723 2.127511e-08 2.9426186e-24)
(-0.0034304759 2.0659487e-08 -1.8041197e-22)
(-0.0034139793 2.0293341e-08 -1.7354232e-22)
(-0.0033975959 2.0208654e-08 1.7513476e-22)
(-0.0033813328 2.0411126e-08 1.7120895e-22)
(-0.0033651993 2.087003e-08 2.739403e-24)
(-0.0033492057 2.156112e-08 3.0801868e-30)
(-0.0033333626 2.2468144e-08 1.6994874e-22)
(-0.0033176825 2.3557135e-08 1.6596417e-22)
(-0.003302178 2.4826243e-08 2.5607755e-24)
(-0.003286862 2.6283962e-08 1.086796e-31)
(-0.0032717423 2.7915733e-08 -2.4191739e-24)
(-0.0032568324 2.9709239e-08 1.6673908e-22)
(-0.0032421391 3.1648342e-08 1.5548558e-22)
(-0.0032276755 3.3730833e-08 1.6062592e-22)
(-0.0032134458 3.5913458e-08 3.1274798e-22)
(-0.0031994702 3.8159284e-08 1.5324955e-22)
(-0.0031857515 4.0634833e-08 1.0861131e-24)
(-0.0031722808 4.3392616e-08 1.0353417e-24)
(-0.0031590577 4.6200813e-08 -2.0451072e-24)
(-0.0031461009 4.8934078e-08 1.0097655e-24)
(-0.0031334299 5.1578386e-08 -9.583177e-25)
(-0.0031210616 5.4180888e-08 9.5832055e-25)
(-0.0031090085 5.6728472e-08 1.3985321e-22)
(-0.0030972838 5.9231184e-08 1.3524998e-22)
(-0.0030858969 6.1667161e-08 -2.4538805e-31)
(-0.0030748632 6.4000143e-08 0)
(-0.0030641893 6.628265e-08 0)
(-0.0030538864 6.8494522e-08 1.2366744e-22)
(-0.0030439579 7.0611273e-08 1.2028618e-22)
(-0.0030344146 7.2621514e-08 1.1697213e-22)
(-0.0030252627 7.4508359e-08 2.2618281e-22)
(-0.0030165103 7.6246032e-08 2.1892257e-22)
(-0.003008164 7.7834626e-08 1.0558954e-22)
(-0.0030002308 7.9254381e-08 4.0721114e-26)
(-0.0029927177 8.0485256e-08 3.7655291e-26)
(-0.0029856313 8.1523124e-08 -9.3455823e-23)
(-0.0029789788 8.2328358e-08 -1.7815891e-22)
(-0.0029727684 8.2895813e-08 -1.692291e-22)
(-0.0029670053 8.3241385e-08 -7.9785638e-23)
(-0.0029616938 8.3327352e-08 -7.5582196e-23)
(-0.0029568421 8.3141833e-08 -7.0519005e-23)
(-0.0029524482 8.276876e-08 0)
(-0.0029485086 8.2162495e-08 2.0950181e-25)
(-0.0029450291 8.1200316e-08 -2.095032e-25)
(-0.0029420197 7.9852503e-08 -3.7722645e-25)
(-0.0029394925 7.8102406e-08 -4.4483543e-23)
(-0.0029374555 7.5956172e-08 -1.4522813e-26)
(-0.0029359185 7.3405513e-08 6.6516101e-23)
(-0.0029348867 7.0439403e-08 2.6888765e-23)
(-0.0029343689 6.7045499e-08 2.9980527e-25)
(-0.0029343694 6.3188883e-08 2.6451038e-25)
(-0.0029349008 5.8800803e-08 -7.9479574e-24)
(-0.0029359766 5.3865148e-08 -1.2881038e-24)
(-0.0029376137 4.83852e-08 1.3349134e-23)
(-0.0029398188 4.2397437e-08 1.3786019e-23)
(-0.0029425995 3.5931935e-08 2.2297469e-23)
(-0.002945953 2.8984151e-08 2.9702958e-23)
(-0.0029498876 2.1504545e-08 3.2380278e-25)
(-0.0029544024 1.3482926e-08 -2.3422202e-26)
(-0.0029595078 4.9088775e-09 -3.0038112e-25)
(-0.0029651992 -4.2163975e-09 6.2877175e-23)
(-0.0029714863 -1.3900599e-08 1.4317575e-22)
(-0.0029783622 -2.4253928e-08 1.6094959e-22)
(-0.0029858553 -3.5342262e-08 8.9913449e-23)
(-0.0029939579 -4.7080902e-08 9.9637408e-23)
(-0.0030026886 -5.9440154e-08 1.0927917e-22)
(-0.0030120206 -7.2328505e-08 -9.291008e-27)
(-0.0030219663 -8.5888701e-08 -1.2885519e-22)
(-0.0030325088 -1.000658e-07 -1.3851973e-22)
(-0.003043656 -1.1487901e-07 -1.6201297e-25)
(-0.0030553887 -1.3040226e-07 3.1810546e-22)
(-0.0030677276 -1.466214e-07 5.0860395e-22)
(-0.0030806464 -1.6360574e-07 1.8026077e-22)
(-0.0030941836 -1.8150463e-07 -4.4114012e-30)
(-0.0031083222 -2.0017749e-07 3.5138918e-25)
(-0.003123087 -2.1973025e-07 -3.5138e-25)
(-0.0031384641 -2.4013815e-07 0)
(-0.0031544836 -2.6145326e-07 2.3828018e-22)
(-0.0031711196 -2.8351491e-07 5.0135635e-22)
(-0.0031883959 -3.0647568e-07 2.6337157e-22)
(-0.0032062828 -3.302854e-07 2.7552389e-22)
(-0.0032248378 -3.550606e-07 2.8992567e-22)
(-0.0032439615 -3.804993e-07 -3.9472665e-29)
(-0.0032638268 -4.0698091e-07 2.0589799e-29)
(-0.0032840365 -4.3392328e-07 7.8341715e-25)
(-0.003305463 -4.6340036e-07 -7.833865e-25)
(-0.0033263296 -4.9390208e-07 -2.6038674e-29)
(-0.0033513234 -5.6269581e-07 8.2962444e-22)
(-0.0033778952 -5.9042763e-07 8.2616809e-22)
(-0.0034017508 -6.0688206e-07 0)
(-0.0034258496 -6.3223813e-07 1.2142121e-24)
(-0.0034498098 -6.5814355e-07 6.8497834e-24)
(-0.0034745057 -6.8792619e-07 -5.9920582e-24)
(-0.003500054 -7.1748876e-07 -1.6842408e-24)
(-0.0035263725 -7.4458183e-07 -5.309552e-24)
(-0.0035533797 -7.6878856e-07 -6.3375721e-28)
(-0.0035809778 -7.9004478e-07 9.5920376e-22)
(-0.0036091936 -8.083386e-07 1.0079905e-21)
(-0.0036378496 -8.2150149e-07 2.2437893e-24)
(-0.0036668245 -8.2980766e-07 -5.0415004e-29)
(-0.003696053 -8.3486967e-07 0)
(-0.003725705 -8.3665862e-07 1.9597538e-23)
(-0.0037555987 -8.3453436e-07 2.9000841e-24)
(-0.0037857351 -8.2810454e-07 1.0066119e-21)
(-0.003815927 -8.1795359e-07 1.9616132e-21)
(-0.0038462542 -8.045907e-07 9.5188721e-22)
(-0.0038764741 -7.8766246e-07 -3.7491419e-24)
(-0.0039067258 -7.6863179e-07 1.925481e-24)
(-0.0039368551 -7.4734301e-07 -3.3283241e-23)
(-0.0039670002 -7.2345616e-07 -6.0076721e-28)
(-0.0039967169 -6.9508194e-07 -3.9103466e-23)
(-0.0040260876 -6.6416238e-07 4.0894202e-23)
(-0.0040548952 -6.3004678e-07 8.1341903e-22)
(-0.0040832394 -5.9291471e-07 8.2567275e-22)
(-0.0041108235 -5.5266572e-07 1.4080642e-24)
(-0.004137797 -5.0951599e-07 -2.8773658e-24)
(-0.0041638838 -4.6245556e-07 3.7695627e-22)
(-0.0041888561 -4.097491e-07 3.5043132e-22)
(-0.0042122396 -3.5586176e-07 3.2539744e-22)
(-0.0042345374 -3.0205953e-07 8.8968737e-25)
(-0.0042554867 -2.4779833e-07 -2.2109063e-22)
(-0.0042749627 -1.9535071e-07 -5.7629697e-23)
(-0.0042931886 -1.4399932e-07 -6.0076321e-23)
(-0.0043087654 -9.7348961e-08 -6.2059377e-23)
(-0.0043241969 -4.8934381e-08 2.4528587e-25)
(-0.0043325273 -2.1136536e-08 1.10019e-22)
(-0.0043488148 3.1792204e-08 7.2046619e-23)
(-0.0043384658 -1.5497804e-08 1.3331191e-26)
(-0.0043854144 8.3537582e-08 -3.6027821e-23)
(-0.0043100891 -1.4559396e-07 -7.6749182e-29)
(-0.0045008774 2.7252602e-07 3.2757101e-31)
(-0.0041240253 -5.1982253e-07 -3.2797884e-31)
(-0.004930111 6.574279e-07 -9.0316632e-22)
(-0.0033639284 -8.149142e-07 1.2227969e-21)
)
;
    }
    hills
    {
        type            calculated;
        value           nonuniform List<vector> 
200
(
(-0.0039906965 -1.654279e-05 5.23461e-21)
(-0.0026967007 3.6201712e-06 2.2369442e-21)
(-0.0045453818 0.00012306325 -3.5986663e-20)
(-0.0031419485 0.00024282781 -1.6944512e-21)
(-0.0023721046 0.00035353788 -2.9845547e-21)
(-0.00021537229 5.9113017e-05 -2.3794139e-21)
(0.0011534806 -0.00039984822 -5.0686603e-22)
(0.0016410484 -0.00076797069 -6.6192762e-25)
(0.0012845469 -0.00073112115 3.4023069e-19)
(0.00099715287 -0.00064925762 8.435173e-22)
(0.00076340441 -0.00054769239 -3.2230078e-19)
(0.00065535963 -0.00050330061 -3.1833854e-19)
(0.00058802198 -0.00047371584 -3.1494986e-19)
(0.00053641979 -0.0004461695 -6.2392264e-19)
(0.00048920891 -0.00041464041 1.0160338e-24)
(0.00044188881 -0.00037710574 -3.0722472e-19)
(0.00039630664 -0.00033671847 2.54363e-22)
(0.0003636125 -0.00030478135 1.7663677e-22)
(0.00034295453 -0.00028334224 5.3000023e-23)
(0.00032946413 -0.00026867597 2.4706245e-23)
(0.0003250332 -0.00026191456 3.0347235e-19)
(0.00032759634 -0.00026117492 -4.2753259e-24)
(0.00033757252 -0.00026662191 -3.0355851e-19)
(0.00035483957 -0.00027795842 3.0368851e-19)
(0.000377858 -0.00029400766 -2.7203643e-24)
(0.00040629554 -0.0003143977 5.1102614e-25)
(0.00043594058 -0.00033593525 3.0347733e-19)
(0.00046244417 -0.00035411588 -3.0297362e-19)
(0.00048577494 -0.00036765469 -3.859388e-25)
(0.00050614726 -0.00037636915 6.0280011e-19)
(0.00052247758 -0.00037928375 8.817002e-24)
(0.00053410187 -0.00037586208 5.9826508e-19)
(0.00054023974 -0.00036564708 9.3892543e-24)
(0.00054011379 -0.00034838123 -2.9656376e-19)
(0.0005335467 -0.00032436435 -5.9069484e-19)
(0.00052247263 -0.00029551315 2.9440986e-19)
(0.00051131197 -0.0002656455 3.9462894e-23)
(0.0004989437 -0.00023558603 -2.9288149e-19)
(0.000483097 -0.00020466968 1.4628304e-19)
(0.00046310332 -0.00017319265 -1.4621719e-19)
(0.00044010498 -0.00014223339 -1.0686176e-27)
(0.0004108252 -0.00011148907 -2.9315157e-19)
(0.00038294855 -8.3647551e-05 -1.5870764e-28)
(0.00034766937 -5.7268283e-05 -7.3915994e-20)
(0.00033410147 -3.6761172e-05 -7.4539421e-20)
(0.00031419813 -1.7508491e-05 -3.7824309e-20)
(0.00042347458 -3.9498635e-06 1.3853723e-21)
(0.00059012617 -1.1534297e-06 2.8215393e-38)
(0.00069136785 -9.5082056e-07 2.3361368e-29)
(0.00079673237 -8.7896685e-07 -2.3361256e-29)
(0.00087798636 -8.0142012e-07 9.4755664e-24)
(0.00095526506 -7.5283283e-07 -9.4752986e-24)
(0.0010205277 -7.1103378e-07 2.4191831e-29)
(0.0010811651 -6.8168754e-07 9.4139316e-24)
(0.0011350295 -6.5833505e-07 -9.4139258e-24)
(0.0011850494 -6.4069749e-07 0)
(0.0012307506 -6.2641626e-07 -3.4002644e-22)
(0.0012733572 -6.1446506e-07 -3.2064945e-22)
(0.0013128216 -6.0376707e-07 1.6056719e-22)
(0.0013496679 -5.9355371e-07 1.3437375e-22)
(0.001383927 -5.8326865e-07 2.7165415e-22)
(0.0014158212 -5.7244547e-07 2.6140236e-22)
(0.0014453739 -5.6078617e-07 -4.3952844e-24)
(0.0014726722 -5.4803166e-07 -4.493298e-33)
(0.0014977222 -5.3401872e-07 -4.2077277e-24)
(0.0015205476 -5.1859987e-07 -4.0676567e-24)
(0.0015411419 -5.0177766e-07 8.2752917e-24)
(0.0015595177 -4.8362916e-07 -8.8245164e-23)
(0.0015756875 -4.6427314e-07 -1.4953255e-22)
(0.0015896763 -4.4380645e-07 -6.9236533e-23)
(0.0016015085 -4.2228653e-07 3.736708e-24)
(0.0016112138 -3.9980222e-07 -3.7366741e-24)
(0.0016188233 -3.764206e-07 3.555656e-24)
(0.0016243734 -3.5224029e-07 -9.4291869e-26)
(0.0016279068 -3.2735951e-07 -3.4613522e-24)
(0.0016294694 -3.0165032e-07 -3.266034e-24)
(0.0016290643 -2.7506284e-07 1.6790617e-23)
(0.0016267167 -2.4789255e-07 1.2504212e-23)
(0.0016224742 -2.2035069e-07 -9.3849788e-30)
(0.0016163938 -1.9257695e-07 8.1653748e-30)
(0.0016085314 -1.6461164e-07 -8.1656022e-30)
(0.001598942 -1.3660041e-07 2.0186793e-23)
(0.0015876993 -1.0867168e-07 2.5411063e-23)
(0.0015748621 -8.0791654e-08 -5.4552408e-26)
(0.0015604878 -5.3171994e-08 -1.2110217e-24)
(0.0015446632 -2.5882529e-08 1.1013554e-24)
(0.0015274446 1.1474802e-09 -5.5103882e-26)
(0.0015089003 2.7603954e-08 -1.0461275e-24)
(0.0014891205 5.3491989e-08 -0)
(0.0014681683 7.8798901e-08 -8.8100185e-25)
(0.0014461281 1.0334367e-07 4.6793464e-25)
(0.0014230741 1.2725376e-07 7.5271222e-23)
(0.0013990699 1.5032247e-07 7.9517247e-23)
(0.0013742101 1.7249902e-07 3.5875981e-25)
(0.0013485603 1.9392687e-07 0)
(0.0013221825 2.1442716e-07 0)
(0.0012951655 2.3396262e-07 9.3789842e-23)
(0.0012675689 2.5270091e-07 9.673522e-23)
(0.0012394527 2.7032871e-07 0)
(0.0012109199 2.8684501e-07 -0)
(0.0011820246 3.0264794e-07 1.877669e-26)
(0.0011527964 3.1754206e-07 -1.8774421e-26)
(0.001123318 3.3138461e-07 -1.07446e-22)
(0.0010936432 3.4439415e-07 -1.0891313e-22)
(0.0010638152 3.5645992e-07 7.7258614e-31)
(0.0010339014 3.6758548e-07 0)
(0.0010039424 3.7793465e-07 1.1193909e-22)
(0.00097397461 3.8741811e-07 -1.1898473e-25)
(0.0009440532 3.9607725e-07 -1.1314928e-22)
(0.00091421029 4.040076e-07 -1.1817827e-25)
(0.00088448068 4.1113106e-07 -1.1817725e-25)
(0.00085490626 4.1751679e-07 2.0272485e-25)
(0.00082551593 4.2312182e-07 -2.0270514e-25)
(0.00079635366 4.2796371e-07 -2.8408613e-25)
(0.00076745162 4.3214919e-07 -3.9502122e-26)
(0.000738837 4.3561026e-07 3.2355945e-25)
(0.00071054747 4.3841683e-07 4.0025548e-25)
(0.0006826066 4.4065122e-07 3.7158657e-26)
(0.00065503349 4.4230909e-07 -9.1114418e-25)
(0.0006278559 4.4342852e-07 4.7383309e-25)
(0.00060108956 4.4410417e-07 -1.0744914e-22)
(0.00057474495 4.4429258e-07 -1.0622878e-22)
(0.00054884306 4.4400332e-07 1.0498093e-22)
(0.00052340363 4.4327837e-07 1.0359346e-22)
(0.00049843501 4.4210412e-07 1.057175e-29)
(0.00047396639 4.4049225e-07 -9.9254491e-23)
(0.00044999853 4.385476e-07 -1.0048436e-22)
(0.00042655526 4.3614849e-07 1.9497419e-22)
(0.00040364354 4.3346049e-07 1.9149005e-22)
(0.00038128506 4.3039007e-07 0)
(0.00035947392 4.270497e-07 -9.2234735e-23)
(0.00033824823 4.2335218e-07 -8.8534021e-23)
(0.00031758105 4.1933157e-07 -1.7654605e-24)
(0.00029755507 4.148742e-07 -1.8721036e-24)
(0.00027809667 4.1022558e-07 1.8721665e-24)
(0.00025934575 4.049663e-07 7.1780104e-18)
(0.0002411703 3.9955734e-07 7.3718381e-18)
(0.00022381203 3.9329636e-07 2.0237545e-24)
(0.00020702749 3.8700776e-07 -7.7184859e-18)
(0.00019122999 3.7954948e-07 -7.9019757e-18)
(0.00017597137 3.7215338e-07 0)
(0.00016199083 3.6307919e-07 -2.0185624e-29)
(0.00014844692 3.543034e-07 -4.5990584e-24)
(0.00013666769 3.4293107e-07 -8.5690583e-26)
(0.00012510879 3.3227246e-07 9.4535674e-24)
(0.00011614545 3.1741649e-07 -9.6201493e-24)
(0.00010697251 3.0403871e-07 4.8515773e-24)
(0.00010182411 2.8369596e-07 -1.8017372e-29)
(9.56519e-05 2.6647638e-07 1.801725e-29)
(9.5924653e-05 2.3674136e-07 -1.6768739e-29)
(9.3816196e-05 2.1380679e-07 1.6768362e-29)
(0.00010216103 1.6802271e-07 -5.3255944e-24)
(0.00010601418 1.4307983e-07 5.3258262e-24)
(0.00012547564 8.1387998e-07 5.4897899e-24)
(0.00014425133 7.7808655e-06 4.5281532e-20)
(0.00014579348 1.5695174e-05 -4.5919331e-20)
(0.00014927903 2.3989997e-05 -5.6515054e-24)
(0.00014176013 3.0162265e-05 6.9383869e-28)
(0.00013374307 3.5246972e-05 -9.6337097e-20)
(0.00011801316 3.6831427e-05 3.0938853e-23)
(0.00010006403 3.58922e-05 8.1474356e-23)
(7.4984694e-05 3.0012649e-05 4.0910735e-23)
(4.5651254e-05 1.9576104e-05 1.2539645e-23)
(8.4836397e-06 2.2360121e-06 -7.0571654e-23)
(-3.5773213e-05 -2.2536954e-05 -1.6644608e-22)
(-9.1748395e-05 -5.8119821e-05 -2.1517392e-19)
(-0.00015947531 -0.00010509033 6.6072784e-24)
(-0.0002379444 -0.00016296219 1.9449516e-24)
(-0.00032771626 -0.0002319855 4.446109e-19)
(-0.00042809769 -0.00031131541 2.2348045e-19)
(-0.00053977168 -0.00040079852 2.2386583e-19)
(-0.00066066211 -0.00049805728 -1.8926945e-24)
(-0.00079121106 -0.00060219781 -2.2178122e-19)
(-0.00092485978 -0.00070714981 4.3600599e-19)
(-0.0010570937 -0.00081043633 -5.4105597e-24)
(-0.0011849149 -0.00091206934 9.3379147e-25)
(-0.0013182212 -0.0010218884 3.1361809e-24)
(-0.0014634282 -0.0011435196 -6.8492632e-22)
(-0.0016170198 -0.0012756195 1.8509904e-19)
(-0.0017877455 -0.0014258808 -6.5647783e-28)
(-0.0019773178 -0.0015968329 1.1842662e-24)
(-0.0021979805 -0.0017992209 -1.1625377e-24)
(-0.0024547999 -0.0020394323 2.2136028e-36)
(-0.002791627 -0.0023510473 -4.3661283e-23)
(-0.0032320543 -0.0027332498 7.8046653e-20)
(-0.0037551285 -0.0031520276 -2.8018193e-22)
(-0.0043798988 -0.003605119 -1.5709617e-22)
(-0.0051205781 -0.0040797576 9.9387575e-26)
(-0.0060317772 -0.0045799612 1.4123568e-19)
(-0.0071133166 -0.0050512498 2.0701939e-22)
(-0.0084575187 -0.0054658978 3.4609086e-19)
(-0.0098798018 -0.0055966874 -4.8889338e-19)
(-0.011342875 -0.0053124923 -8.5193254e-21)
(-0.011776747 -0.0041696285 -4.2188487e-19)
(-0.010807749 -0.0026420721 4.8243958e-23)
(-0.0086001018 -0.0013140836 -1.9410244e-23)
(-0.0066771708 -0.0005383339 3.383312e-24)
(-0.0042281738 -0.00013047692 -5.6334466e-24)
(-0.0037491975 -4.4524061e-06 3.7961691e-21)
(-0.0015893828 7.1170535e-06 -6.1418095e-21)
)
;
    }
    front
    {
        type            empty;
    }
    back
    {
        type            empty;
    }
}


// ************************************************************************* //
