0.05 	1.00474 	0 	6.66667e-11 	-5.66599e-28 	3.6599e-26 	6.66667e-11 	0 	6.66667e-11
0.05 	1.00474 	0 	6.66667e-11 	-5.66599e-28 	3.6599e-26 	6.66667e-11 	0 	6.66667e-11
0.05 	1.00474 	0 	6.66667e-11 	-5.66599e-28 	3.6599e-26 	6.66667e-11 	0 	6.66667e-11
0.05 	1.00474 	0 	6.66667e-11 	-5.66599e-28 	3.6599e-26 	6.66667e-11 	0 	6.66667e-11
0.05 	1.0091 	0 	6.66667e-11 	4.26462e-27 	1.31378e-30 	6.66667e-11 	0 	6.66667e-11
0.05 	1.0091 	0 	6.66667e-11 	4.26462e-27 	1.31378e-30 	6.66667e-11 	0 	6.66667e-11
3 	0.00710578 	0 	6.66667e-11 	-3.28425e-27 	2.76837e-26 	6.66667e-11 	0 	6.66667e-11
3 	0.00710578 	0 	6.66667e-11 	-3.28425e-27 	2.76837e-26 	6.66667e-11 	0 	6.66667e-11
4 	0.00710578 	0 	6.66667e-11 	-3.58235e-27 	6.6047e-27 	6.66667e-11 	0 	6.66667e-11
4 	0.00710578 	0 	6.66667e-11 	-3.58235e-27 	6.6047e-27 	6.66667e-11 	0 	6.66667e-11
0.05 	1.0091 	0 	6.66667e-11 	4.26462e-27 	1.31378e-30 	6.66667e-11 	0 	6.66667e-11
0.05 	1.0091 	0 	6.66667e-11 	4.26462e-27 	1.31378e-30 	6.66667e-11 	0 	6.66667e-11
3 	0.0132945 	0 	6.66667e-11 	-1.34944e-27 	-2.00814e-27 	6.66667e-11 	0 	6.66667e-11
3 	0.0132945 	0 	6.66667e-11 	-1.34944e-27 	-2.00814e-27 	6.66667e-11 	0 	6.66667e-11
4 	0.0132945 	0 	6.66667e-11 	1.27002e-27 	8.56036e-28 	6.66667e-11 	0 	6.66667e-11
4 	0.0132945 	0 	6.66667e-11 	1.27002e-27 	8.56036e-28 	6.66667e-11 	0 	6.66667e-11
5 	0.0132945 	0 	6.66667e-11 	2.70496e-27 	-2.58857e-26 	6.66667e-11 	0 	6.66667e-11
5 	0.0132945 	0 	6.66667e-11 	2.70496e-27 	-2.58857e-26 	6.66667e-11 	0 	6.66667e-11
0.05 	1.0091 	0 	6.66667e-11 	4.26462e-27 	1.31378e-30 	6.66667e-11 	0 	6.66667e-11
0.05 	1.0091 	0 	6.66667e-11 	4.26462e-27 	1.31378e-30 	6.66667e-11 	0 	6.66667e-11
3 	0.0132945 	0 	6.66667e-11 	-1.34944e-27 	-2.00814e-27 	6.66667e-11 	0 	6.66667e-11
3 	0.0132945 	0 	6.66667e-11 	-1.34944e-27 	-2.00814e-27 	6.66667e-11 	0 	6.66667e-11
4 	0.0132945 	0 	6.66667e-11 	1.27002e-27 	8.56036e-28 	6.66667e-11 	0 	6.66667e-11
4 	0.0132945 	0 	6.66667e-11 	1.27002e-27 	8.56036e-28 	6.66667e-11 	0 	6.66667e-11
5 	0.0132945 	0 	6.66667e-11 	2.70496e-27 	-2.58857e-26 	6.66667e-11 	0 	6.66667e-11
5 	0.0132945 	0 	6.66667e-11 	2.70496e-27 	-2.58857e-26 	6.66667e-11 	0 	6.66667e-11
0.05 	1.0091 	0 	6.66667e-11 	4.26462e-27 	1.31378e-30 	6.66667e-11 	0 	6.66667e-11
0.05 	1.0091 	0 	6.66667e-11 	4.26462e-27 	1.31378e-30 	6.66667e-11 	0 	6.66667e-11
3 	0.0132945 	0 	6.66667e-11 	-1.34944e-27 	-2.00814e-27 	6.66667e-11 	0 	6.66667e-11
3 	0.0132945 	0 	6.66667e-11 	-1.34944e-27 	-2.00814e-27 	6.66667e-11 	0 	6.66667e-11
4 	0.0132945 	0 	6.66667e-11 	1.27002e-27 	8.56036e-28 	6.66667e-11 	0 	6.66667e-11
4 	0.0132945 	0 	6.66667e-11 	1.27002e-27 	8.56036e-28 	6.66667e-11 	0 	6.66667e-11
5 	0.0132945 	0 	6.66667e-11 	2.70496e-27 	-2.58857e-26 	6.66667e-11 	0 	6.66667e-11
5 	0.0132945 	0 	6.66667e-11 	2.70496e-27 	-2.58857e-26 	6.66667e-11 	0 	6.66667e-11
6 	0.0132945 	0 	6.66667e-11 	4.95849e-27 	2.95263e-33 	6.66667e-11 	0 	6.66667e-11
6 	0.0132945 	0 	6.66667e-11 	4.95849e-27 	2.95263e-33 	6.66667e-11 	0 	6.66667e-11
0.05 	1.0091 	0 	6.66667e-11 	4.26462e-27 	1.31378e-30 	6.66667e-11 	0 	6.66667e-11
0.05 	1.0091 	0 	6.66667e-11 	4.26462e-27 	1.31378e-30 	6.66667e-11 	0 	6.66667e-11
2 	0.0132945 	0 	6.66667e-11 	-9.43795e-27 	2.84206e-27 	6.66667e-11 	0 	6.66667e-11
3 	0.0132945 	0 	6.66667e-11 	-1.34944e-27 	-2.00814e-27 	6.66667e-11 	0 	6.66667e-11
3 	0.0132945 	0 	6.66667e-11 	-1.34944e-27 	-2.00814e-27 	6.66667e-11 	0 	6.66667e-11
4 	0.0132945 	0 	6.66667e-11 	1.27002e-27 	8.56036e-28 	6.66667e-11 	0 	6.66667e-11
4 	0.0132945 	0 	6.66667e-11 	1.27002e-27 	8.56036e-28 	6.66667e-11 	0 	6.66667e-11
5 	0.0132945 	0 	6.66667e-11 	2.70496e-27 	-2.58857e-26 	6.66667e-11 	0 	6.66667e-11
5 	0.0132945 	0 	6.66667e-11 	2.70496e-27 	-2.58857e-26 	6.66667e-11 	0 	6.66667e-11
6 	0.0132945 	0 	6.66667e-11 	4.95849e-27 	2.95263e-33 	6.66667e-11 	0 	6.66667e-11
6 	0.0132945 	0 	6.66667e-11 	4.95849e-27 	2.95263e-33 	6.66667e-11 	0 	6.66667e-11
0.05 	1.01347 	0 	6.66667e-11 	-3.56344e-27 	-8.81087e-27 	6.66667e-11 	0 	6.66667e-11
0.05 	1.01347 	0 	6.66667e-11 	-3.56344e-27 	-8.81087e-27 	6.66667e-11 	0 	6.66667e-11
2 	0.0194833 	0 	6.66667e-11 	6.59042e-27 	3.29686e-27 	6.66667e-11 	0 	6.66667e-11
2 	0.0194833 	0 	6.66667e-11 	6.59042e-27 	3.29686e-27 	6.66667e-11 	0 	6.66667e-11
3 	0.0194833 	0 	6.66667e-11 	2.97767e-27 	5.2928e-27 	6.66667e-11 	0 	6.66667e-11
3 	0.0194833 	0 	6.66667e-11 	2.97767e-27 	5.2928e-27 	6.66667e-11 	0 	6.66667e-11
4 	0.0194833 	0 	6.66667e-11 	-2.93961e-27 	3.88819e-27 	6.66667e-11 	0 	6.66667e-11
4 	0.0194833 	0 	6.66667e-11 	-2.93961e-27 	3.88819e-27 	6.66667e-11 	0 	6.66667e-11
5 	0.0194833 	0 	6.66667e-11 	2.48089e-27 	1.9301e-27 	6.66667e-11 	0 	6.66667e-11
5 	0.0194833 	0 	6.66667e-11 	2.48089e-27 	1.9301e-27 	6.66667e-11 	0 	6.66667e-11
6 	0.0194833 	0 	6.66667e-11 	3.63414e-27 	-8.61054e-27 	6.66667e-11 	0 	6.66667e-11
6 	0.0194833 	0 	6.66667e-11 	3.63414e-27 	-8.61054e-27 	6.66667e-11 	0 	6.66667e-11
7 	0.0194833 	0 	6.66667e-11 	1.54143e-27 	-3.52121e-27 	6.66667e-11 	0 	6.66667e-11
0.05 	1.01347 	0 	6.66667e-11 	-3.56344e-27 	-8.81087e-27 	6.66667e-11 	0 	6.66667e-11
0.05 	1.01347 	0 	6.66667e-11 	-3.56344e-27 	-8.81087e-27 	6.66667e-11 	0 	6.66667e-11
2 	0.0194833 	0 	6.66667e-11 	6.59042e-27 	3.29686e-27 	6.66667e-11 	0 	6.66667e-11
2 	0.0194833 	0 	6.66667e-11 	6.59042e-27 	3.29686e-27 	6.66667e-11 	0 	6.66667e-11
3 	0.0194833 	0 	6.66667e-11 	2.97767e-27 	5.2928e-27 	6.66667e-11 	0 	6.66667e-11
3 	0.0194833 	0 	6.66667e-11 	2.97767e-27 	5.2928e-27 	6.66667e-11 	0 	6.66667e-11
4 	0.0194833 	0 	6.66667e-11 	-2.93961e-27 	3.88819e-27 	6.66667e-11 	0 	6.66667e-11
4 	0.0194833 	0 	6.66667e-11 	-2.93961e-27 	3.88819e-27 	6.66667e-11 	0 	6.66667e-11
5 	0.0194833 	0 	6.66667e-11 	2.48089e-27 	1.9301e-27 	6.66667e-11 	0 	6.66667e-11
5 	0.0194833 	0 	6.66667e-11 	2.48089e-27 	1.9301e-27 	6.66667e-11 	0 	6.66667e-11
6 	0.0194833 	0 	6.66667e-11 	3.63414e-27 	-8.61054e-27 	6.66667e-11 	0 	6.66667e-11
6 	0.0194833 	0 	6.66667e-11 	3.63414e-27 	-8.61054e-27 	6.66667e-11 	0 	6.66667e-11
7 	0.0194833 	0 	6.66667e-11 	1.54143e-27 	-3.52121e-27 	6.66667e-11 	0 	6.66667e-11
8 	0.452696 	0 	6.66667e-11 	-6.34813e-27 	1.81347e-26 	6.66667e-11 	0 	6.66667e-11
8 	0.48364 	0 	6.66667e-11 	2.48799e-28 	-6.03264e-27 	6.66667e-11 	0 	6.66667e-11
0.05 	1.01347 	0 	6.66667e-11 	-3.56344e-27 	-8.81087e-27 	6.66667e-11 	0 	6.66667e-11
0.05 	1.01347 	0 	6.66667e-11 	-3.56344e-27 	-8.81087e-27 	6.66667e-11 	0 	6.66667e-11
2 	0.0194833 	0 	6.66667e-11 	6.59042e-27 	3.29686e-27 	6.66667e-11 	0 	6.66667e-11
2 	0.0194833 	0 	6.66667e-11 	6.59042e-27 	3.29686e-27 	6.66667e-11 	0 	6.66667e-11
3 	0.0194833 	0 	6.66667e-11 	2.97767e-27 	5.2928e-27 	6.66667e-11 	0 	6.66667e-11
3 	0.0194833 	0 	6.66667e-11 	2.97767e-27 	5.2928e-27 	6.66667e-11 	0 	6.66667e-11
4 	0.0194833 	0 	6.66667e-11 	-2.93961e-27 	3.88819e-27 	6.66667e-11 	0 	6.66667e-11
4 	0.0194833 	0 	6.66667e-11 	-2.93961e-27 	3.88819e-27 	6.66667e-11 	0 	6.66667e-11
5 	0.0194833 	0 	6.66667e-11 	2.48089e-27 	1.9301e-27 	6.66667e-11 	0 	6.66667e-11
5 	0.0194833 	0 	6.66667e-11 	2.48089e-27 	1.9301e-27 	6.66667e-11 	0 	6.66667e-11
6 	0.0194833 	0 	6.66667e-11 	3.63414e-27 	-8.61054e-27 	6.66667e-11 	0 	6.66667e-11
6 	0.0194833 	0 	6.66667e-11 	3.63414e-27 	-8.61054e-27 	6.66667e-11 	0 	6.66667e-11
7 	0.0194833 	0 	6.66667e-11 	1.54143e-27 	-3.52121e-27 	6.66667e-11 	0 	6.66667e-11
8 	0.452696 	0 	6.66667e-11 	-6.34813e-27 	1.81347e-26 	6.66667e-11 	0 	6.66667e-11
8 	0.48364 	0 	6.66667e-11 	2.48799e-28 	-6.03264e-27 	6.66667e-11 	0 	6.66667e-11
0.05 	1.01783 	0 	6.66667e-11 	-1.22806e-28 	2.01183e-26 	6.66667e-11 	0 	6.66667e-11
0.05 	1.01783 	0 	6.66667e-11 	-1.22806e-28 	2.01183e-26 	6.66667e-11 	0 	6.66667e-11
2 	0.0256721 	0 	6.66667e-11 	1.50415e-28 	-1.68636e-27 	6.66667e-11 	0 	6.66667e-11
2 	0.0256721 	0 	6.66667e-11 	1.50415e-28 	-1.68636e-27 	6.66667e-11 	0 	6.66667e-11
3 	0.0256721 	0 	6.66667e-11 	4.6904e-28 	-8.0354e-28 	6.66667e-11 	0 	6.66667e-11
3 	0.0256721 	0 	6.66667e-11 	4.6904e-28 	-8.0354e-28 	6.66667e-11 	0 	6.66667e-11
4 	0.0256721 	0 	6.66667e-11 	-1.93131e-27 	-1.10078e-26 	6.66667e-11 	0 	6.66667e-11
4 	0.0256721 	0 	6.66667e-11 	-1.93131e-27 	-1.10078e-26 	6.66667e-11 	0 	6.66667e-11
5 	0.0256721 	0 	6.66667e-11 	-5.04782e-27 	-6.27524e-27 	6.66667e-11 	0 	6.66667e-11
5 	0.0256721 	0 	6.66667e-11 	-5.04782e-27 	-6.27524e-27 	6.66667e-11 	0 	6.66667e-11
6 	0.0256721 	0 	6.66667e-11 	-1.03506e-27 	9.64482e-29 	6.66667e-11 	0 	6.66667e-11
6 	0.0256721 	0 	6.66667e-11 	-1.03506e-27 	9.64482e-29 	6.66667e-11 	0 	6.66667e-11
7 	0.0256721 	0 	6.66667e-11 	3.23714e-27 	2.44769e-27 	6.66667e-11 	0 	6.66667e-11
7 	0.0256721 	0 	6.66667e-11 	3.23714e-27 	2.44769e-27 	6.66667e-11 	0 	6.66667e-11
8 	0.458885 	0 	6.66667e-11 	-6.72765e-27 	-1.35395e-26 	6.66667e-11 	0 	6.66667e-11
8 	0.48364 	0 	6.66667e-11 	2.48799e-28 	-6.03264e-27 	6.66667e-11 	0 	6.66667e-11
0.05 	1.01783 	0 	6.66667e-11 	-1.22806e-28 	2.01183e-26 	6.66667e-11 	0 	6.66667e-11
0.05 	1.01783 	0 	6.66667e-11 	-1.22806e-28 	2.01183e-26 	6.66667e-11 	0 	6.66667e-11
2 	0.0256721 	0 	6.66667e-11 	1.50415e-28 	-1.68636e-27 	6.66667e-11 	0 	6.66667e-11
2 	0.0256721 	0 	6.66667e-11 	1.50415e-28 	-1.68636e-27 	6.66667e-11 	0 	6.66667e-11
3 	0.0256721 	0 	6.66667e-11 	4.6904e-28 	-8.0354e-28 	6.66667e-11 	0 	6.66667e-11
3 	0.0256721 	0 	6.66667e-11 	4.6904e-28 	-8.0354e-28 	6.66667e-11 	0 	6.66667e-11
4 	0.0256721 	0 	6.66667e-11 	-1.93131e-27 	-1.10078e-26 	6.66667e-11 	0 	6.66667e-11
4 	0.0256721 	0 	6.66667e-11 	-1.93131e-27 	-1.10078e-26 	6.66667e-11 	0 	6.66667e-11
5 	0.0256721 	0 	6.66667e-11 	-5.04782e-27 	-6.27524e-27 	6.66667e-11 	0 	6.66667e-11
5 	0.0256721 	0 	6.66667e-11 	-5.04782e-27 	-6.27524e-27 	6.66667e-11 	0 	6.66667e-11
6 	0.0256721 	0 	6.66667e-11 	-1.03506e-27 	9.64482e-29 	6.66667e-11 	0 	6.66667e-11
6 	0.0256721 	0 	6.66667e-11 	-1.03506e-27 	9.64482e-29 	6.66667e-11 	0 	6.66667e-11
7 	0.0256721 	0 	6.66667e-11 	3.23714e-27 	2.44769e-27 	6.66667e-11 	0 	6.66667e-11
7 	0.0256721 	0 	6.66667e-11 	3.23714e-27 	2.44769e-27 	6.66667e-11 	0 	6.66667e-11
8 	0.458885 	0 	6.66667e-11 	-6.72765e-27 	-1.35395e-26 	6.66667e-11 	0 	6.66667e-11
8 	0.489829 	0 	6.66667e-11 	-2.86785e-27 	-2.42217e-27 	6.66667e-11 	0 	6.66667e-11
0.05 	1.01783 	0 	6.66667e-11 	-1.22806e-28 	2.01183e-26 	6.66667e-11 	0 	6.66667e-11
0.05 	1.01783 	0 	6.66667e-11 	-1.22806e-28 	2.01183e-26 	6.66667e-11 	0 	6.66667e-11
2 	0.0318608 	0 	6.66667e-11 	1.52271e-27 	-3.19665e-27 	6.66667e-11 	0 	6.66667e-11
2 	0.0318608 	0 	6.66667e-11 	1.52271e-27 	-3.19665e-27 	6.66667e-11 	0 	6.66667e-11
3 	0.0318608 	0 	6.66667e-11 	-2.351e-27 	4.42032e-27 	6.66667e-11 	0 	6.66667e-11
3 	0.0318608 	0 	6.66667e-11 	-2.351e-27 	4.42032e-27 	6.66667e-11 	0 	6.66667e-11
4 	0.0318608 	0 	6.66667e-11 	3.88246e-28 	2.00376e-27 	6.66667e-11 	0 	6.66667e-11
4 	0.0318608 	0 	6.66667e-11 	3.88246e-28 	2.00376e-27 	6.66667e-11 	0 	6.66667e-11
5 	0.0318608 	0 	6.66667e-11 	3.60949e-27 	-3.72066e-27 	6.66667e-11 	0 	6.66667e-11
5 	0.0318608 	0 	6.66667e-11 	3.60949e-27 	-3.72066e-27 	6.66667e-11 	0 	6.66667e-11
6 	0.0318608 	0 	6.66667e-11 	5.2922e-28 	4.2581e-27 	6.66667e-11 	0 	6.66667e-11
6 	0.0318608 	0 	6.66667e-11 	5.2922e-28 	4.2581e-27 	6.66667e-11 	0 	6.66667e-11
7 	0.0318608 	0 	6.66667e-11 	-1.7935e-27 	-8.62363e-27 	6.66667e-11 	0 	6.66667e-11
7 	0.0318608 	0 	6.66667e-11 	-1.7935e-27 	-8.62363e-27 	6.66667e-11 	0 	6.66667e-11
8 	0.458885 	0 	6.66667e-11 	-6.72765e-27 	-1.35395e-26 	6.66667e-11 	0 	6.66667e-11
8 	0.489829 	0 	6.66667e-11 	-2.86785e-27 	-2.42217e-27 	6.66667e-11 	0 	6.66667e-11
0.05 	1.02219 	0 	6.66667e-11 	-1.92827e-27 	-3.02956e-27 	6.66667e-11 	0 	6.66667e-11
0.05 	1.02219 	0 	6.66667e-11 	-1.92827e-27 	-3.02956e-27 	6.66667e-11 	0 	6.66667e-11
1 	0.491191 	0 	6.66667e-11 	-9.55976e-28 	-2.2186e-27 	6.66667e-11 	0 	6.66667e-11
1 	0.46437 	0 	6.66667e-11 	1.735e-27 	-2.47581e-27 	6.66667e-11 	0 	6.66667e-11
2 	0.0318608 	0 	6.66667e-11 	1.52271e-27 	-3.19665e-27 	6.66667e-11 	0 	6.66667e-11
2 	0.0318608 	0 	6.66667e-11 	1.52271e-27 	-3.19665e-27 	6.66667e-11 	0 	6.66667e-11
3 	0.0318608 	0 	6.66667e-11 	-2.351e-27 	4.42032e-27 	6.66667e-11 	0 	6.66667e-11
3 	0.0318608 	0 	6.66667e-11 	-2.351e-27 	4.42032e-27 	6.66667e-11 	0 	6.66667e-11
4 	0.0318608 	0 	6.66667e-11 	3.88246e-28 	2.00376e-27 	6.66667e-11 	0 	6.66667e-11
4 	0.0318608 	0 	6.66667e-11 	3.88246e-28 	2.00376e-27 	6.66667e-11 	0 	6.66667e-11
5 	0.0318608 	0 	6.66667e-11 	3.60949e-27 	-3.72066e-27 	6.66667e-11 	0 	6.66667e-11
5 	0.0318608 	0 	6.66667e-11 	3.60949e-27 	-3.72066e-27 	6.66667e-11 	0 	6.66667e-11
6 	0.0318608 	0 	6.66667e-11 	5.2922e-28 	4.2581e-27 	6.66667e-11 	0 	6.66667e-11
6 	0.0318608 	0 	6.66667e-11 	5.2922e-28 	4.2581e-27 	6.66667e-11 	0 	6.66667e-11
7 	0.0318608 	0 	6.66667e-11 	-1.7935e-27 	-8.62363e-27 	6.66667e-11 	0 	6.66667e-11
7 	0.0318608 	0 	6.66667e-11 	-1.7935e-27 	-8.62363e-27 	6.66667e-11 	0 	6.66667e-11
8 	0.465074 	0 	6.66667e-11 	8.9679e-28 	2.86223e-30 	6.66667e-11 	0 	6.66667e-11
8 	0.489829 	0 	6.66667e-11 	-2.86785e-27 	-2.42217e-27 	6.66667e-11 	0 	6.66667e-11
0.05 	1.02219 	0 	6.66667e-11 	-1.92827e-27 	-3.02956e-27 	6.66667e-11 	0 	6.66667e-11
0.05 	1.02219 	0 	6.66667e-11 	-1.92827e-27 	-3.02956e-27 	6.66667e-11 	0 	6.66667e-11
1 	0.496555 	0 	6.66667e-11 	2.46051e-27 	-4.19349e-27 	6.66667e-11 	0 	6.66667e-11
1 	0.46437 	0 	6.66667e-11 	1.735e-27 	-2.47581e-27 	6.66667e-11 	0 	6.66667e-11
2 	0.0318608 	0 	6.66667e-11 	1.52271e-27 	-3.19665e-27 	6.66667e-11 	0 	6.66667e-11
2 	0.0318608 	0 	6.66667e-11 	1.52271e-27 	-3.19665e-27 	6.66667e-11 	0 	6.66667e-11
3 	0.0318608 	0 	6.66667e-11 	-2.351e-27 	4.42032e-27 	6.66667e-11 	0 	6.66667e-11
3 	0.0318608 	0 	6.66667e-11 	-2.351e-27 	4.42032e-27 	6.66667e-11 	0 	6.66667e-11
4 	0.0318608 	0 	6.66667e-11 	3.88246e-28 	2.00376e-27 	6.66667e-11 	0 	6.66667e-11
4 	0.0318608 	0 	6.66667e-11 	3.88246e-28 	2.00376e-27 	6.66667e-11 	0 	6.66667e-11
5 	0.0318608 	0 	6.66667e-11 	3.60949e-27 	-3.72066e-27 	6.66667e-11 	0 	6.66667e-11
5 	0.0318608 	0 	6.66667e-11 	3.60949e-27 	-3.72066e-27 	6.66667e-11 	0 	6.66667e-11
6 	0.0318608 	0 	6.66667e-11 	5.2922e-28 	4.2581e-27 	6.66667e-11 	0 	6.66667e-11
6 	0.0318608 	0 	6.66667e-11 	5.2922e-28 	4.2581e-27 	6.66667e-11 	0 	6.66667e-11
7 	0.0318608 	0 	6.66667e-11 	-1.7935e-27 	-8.62363e-27 	6.66667e-11 	0 	6.66667e-11
7 	0.0318608 	0 	6.66667e-11 	-1.7935e-27 	-8.62363e-27 	6.66667e-11 	0 	6.66667e-11
8 	0.465074 	0 	6.66667e-11 	8.9679e-28 	2.86223e-30 	6.66667e-11 	0 	6.66667e-11
8 	0.496018 	0 	6.66667e-11 	7.20918e-28 	1.94784e-27 	6.66667e-11 	0 	6.66667e-11
0.05 	1.02656 	0 	6.66667e-11 	-9.18906e-28 	3.07574e-28 	6.66667e-11 	0 	6.66667e-11
0.05 	1.02656 	0 	6.66667e-11 	-9.18906e-28 	3.07574e-28 	6.66667e-11 	0 	6.66667e-11
1 	0.496555 	0 	6.66667e-11 	2.46051e-27 	-4.19349e-27 	6.66667e-11 	0 	6.66667e-11
1 	0.469734 	0 	6.66667e-11 	-1.62045e-27 	1.44247e-26 	6.66667e-11 	0 	6.66667e-11
2 	0.0380496 	0 	6.66667e-11 	4.5805e-29 	-7.37194e-33 	6.66667e-11 	0 	6.66667e-11
2 	0.0380496 	0 	6.66667e-11 	4.5805e-29 	-7.37194e-33 	6.66667e-11 	0 	6.66667e-11
3 	0.0380496 	0 	6.66667e-11 	1.32311e-27 	-5.72363e-27 	6.66667e-11 	0 	6.66667e-11
3 	0.0380496 	0 	6.66667e-11 	1.32311e-27 	-5.72363e-27 	6.66667e-11 	0 	6.66667e-11
4 	0.0380496 	0 	6.66667e-11 	2.59021e-28 	4.60267e-27 	6.66667e-11 	0 	6.66667e-11
4 	0.0380496 	0 	6.66667e-11 	2.59021e-28 	4.60267e-27 	6.66667e-11 	0 	6.66667e-11
5 	0.0380496 	0 	6.66667e-11 	-2.46273e-27 	2.57954e-27 	6.66667e-11 	0 	6.66667e-11
5 	0.0380496 	0 	6.66667e-11 	-2.46273e-27 	2.57954e-27 	6.66667e-11 	0 	6.66667e-11
6 	0.0380496 	0 	6.66667e-11 	-7.04109e-29 	-3.31151e-27 	6.66667e-11 	0 	6.66667e-11
6 	0.0380496 	0 	6.66667e-11 	-7.04109e-29 	-3.31151e-27 	6.66667e-11 	0 	6.66667e-11
7 	0.0380496 	0 	6.66667e-11 	1.58662e-27 	5.1933e-27 	6.66667e-11 	0 	6.66667e-11
7 	0.0380496 	0 	6.66667e-11 	1.58662e-27 	5.1933e-27 	6.66667e-11 	0 	6.66667e-11
8 	0.465074 	0 	6.66667e-11 	8.9679e-28 	2.86223e-30 	6.66667e-11 	0 	6.66667e-11
8 	0.496018 	0 	6.66667e-11 	7.20918e-28 	1.94784e-27 	6.66667e-11 	0 	6.66667e-11
0.05 	1.02656 	0 	6.66667e-11 	-9.18906e-28 	3.07574e-28 	6.66667e-11 	0 	6.66667e-11
0.05 	1.02656 	0 	6.66667e-11 	-9.18906e-28 	3.07574e-28 	6.66667e-11 	0 	6.66667e-11
1 	0.50192 	0 	6.66667e-11 	-1.30293e-27 	-1.89258e-27 	6.66667e-11 	0 	6.66667e-11
1 	0.469734 	0 	6.66667e-11 	-1.62045e-27 	1.44247e-26 	6.66667e-11 	0 	6.66667e-11
2 	0.0380496 	0 	6.66667e-11 	4.5805e-29 	-7.37194e-33 	6.66667e-11 	0 	6.66667e-11
2 	0.0380496 	0 	6.66667e-11 	4.5805e-29 	-7.37194e-33 	6.66667e-11 	0 	6.66667e-11
3 	0.0380496 	0 	6.66667e-11 	1.32311e-27 	-5.72363e-27 	6.66667e-11 	0 	6.66667e-11
3 	0.0380496 	0 	6.66667e-11 	1.32311e-27 	-5.72363e-27 	6.66667e-11 	0 	6.66667e-11
4 	0.0380496 	0 	6.66667e-11 	2.59021e-28 	4.60267e-27 	6.66667e-11 	0 	6.66667e-11
4 	0.0380496 	0 	6.66667e-11 	2.59021e-28 	4.60267e-27 	6.66667e-11 	0 	6.66667e-11
5 	0.0380496 	0 	6.66667e-11 	-2.46273e-27 	2.57954e-27 	6.66667e-11 	0 	6.66667e-11
5 	0.0380496 	0 	6.66667e-11 	-2.46273e-27 	2.57954e-27 	6.66667e-11 	0 	6.66667e-11
6 	0.0380496 	0 	6.66667e-11 	-7.04109e-29 	-3.31151e-27 	6.66667e-11 	0 	6.66667e-11
6 	0.0380496 	0 	6.66667e-11 	-7.04109e-29 	-3.31151e-27 	6.66667e-11 	0 	6.66667e-11
7 	0.0380496 	0 	6.66667e-11 	1.58662e-27 	5.1933e-27 	6.66667e-11 	0 	6.66667e-11
7 	0.0380496 	0 	6.66667e-11 	1.58662e-27 	5.1933e-27 	6.66667e-11 	0 	6.66667e-11
8 	0.471263 	0 	6.66667e-11 	-8.60015e-28 	-5.17319e-27 	6.66667e-11 	0 	6.66667e-11
8 	0.502206 	0 	6.66667e-11 	-1.00958e-27 	1.06924e-27 	6.66667e-11 	0 	6.66667e-11
0.05 	1.03092 	0 	6.66667e-11 	-1.26123e-27 	-7.40035e-27 	6.66667e-11 	0 	6.66667e-11
0.05 	1.03092 	0 	6.66667e-11 	-1.26123e-27 	-7.40035e-27 	6.66667e-11 	0 	6.66667e-11
1 	0.50192 	0 	6.66667e-11 	-1.30293e-27 	-1.89258e-27 	6.66667e-11 	0 	6.66667e-11
1 	0.475099 	0 	6.66667e-11 	1.48353e-27 	6.53085e-27 	6.66667e-11 	0 	6.66667e-11
2 	0.0442383 	0 	6.66667e-11 	-1.60605e-27 	5.47114e-28 	6.66667e-11 	0 	6.66667e-11
2 	0.0442383 	0 	6.66667e-11 	-1.60605e-27 	5.47114e-28 	6.66667e-11 	0 	6.66667e-11
3 	0.0442383 	0 	6.66667e-11 	-3.60263e-27 	8.08436e-27 	6.66667e-11 	0 	6.66667e-11
3 	0.0442383 	0 	6.66667e-11 	-3.60263e-27 	8.08436e-27 	6.66667e-11 	0 	6.66667e-11
4 	0.0442383 	0 	6.66667e-11 	-1.01986e-27 	1.6919e-27 	6.66667e-11 	0 	6.66667e-11
4 	0.0442383 	0 	6.66667e-11 	-1.01986e-27 	1.6919e-27 	6.66667e-11 	0 	6.66667e-11
5 	0.0442383 	0 	6.66667e-11 	7.91053e-28 	-1.58393e-27 	6.66667e-11 	0 	6.66667e-11
5 	0.0442383 	0 	6.66667e-11 	7.91053e-28 	-1.58393e-27 	6.66667e-11 	0 	6.66667e-11
6 	0.0442383 	0 	6.66667e-11 	-2.53889e-27 	5.31932e-28 	6.66667e-11 	0 	6.66667e-11
6 	0.0442383 	0 	6.66667e-11 	-2.53889e-27 	5.31932e-28 	6.66667e-11 	0 	6.66667e-11
7 	0.0442383 	0 	6.66667e-11 	-1.24092e-27 	-3.52155e-28 	6.66667e-11 	0 	6.66667e-11
7 	0.0442383 	0 	6.66667e-11 	-1.24092e-27 	-3.52155e-28 	6.66667e-11 	0 	6.66667e-11
8 	0.471263 	0 	6.66667e-11 	-8.60015e-28 	-5.17319e-27 	6.66667e-11 	0 	6.66667e-11
8 	0.502206 	0 	6.66667e-11 	-1.00958e-27 	1.06924e-27 	6.66667e-11 	0 	6.66667e-11
0.05 	1.03092 	0 	6.66667e-11 	-1.26123e-27 	-7.40035e-27 	6.66667e-11 	0 	6.66667e-11
0.05 	1.03092 	0 	6.66667e-11 	-1.26123e-27 	-7.40035e-27 	6.66667e-11 	0 	6.66667e-11
1 	0.507284 	0 	6.66667e-11 	-1.30283e-27 	2.68186e-27 	6.66667e-11 	0 	6.66667e-11
1 	0.475099 	0 	6.66667e-11 	1.48353e-27 	6.53085e-27 	6.66667e-11 	0 	6.66667e-11
2 	0.0504271 	0 	6.66667e-11 	-1.49086e-28 	2.31841e-27 	6.66667e-11 	0 	6.66667e-11
2 	0.0504271 	0 	6.66667e-11 	-1.49086e-28 	2.31841e-27 	6.66667e-11 	0 	6.66667e-11
3 	0.0504271 	0 	6.66667e-11 	-1.31895e-27 	-3.59731e-27 	6.66667e-11 	0 	6.66667e-11
3 	0.0504271 	0 	6.66667e-11 	-1.31895e-27 	-3.59731e-27 	6.66667e-11 	0 	6.66667e-11
4 	0.0504271 	0 	6.66667e-11 	4.83194e-28 	3.87482e-27 	6.66667e-11 	0 	6.66667e-11
4 	0.0504271 	0 	6.66667e-11 	4.83194e-28 	3.87482e-27 	6.66667e-11 	0 	6.66667e-11
5 	0.0504271 	0 	6.66667e-11 	2.01655e-27 	-8.60006e-28 	6.66667e-11 	0 	6.66667e-11
5 	0.0504271 	0 	6.66667e-11 	2.01655e-27 	-8.60006e-28 	6.66667e-11 	0 	6.66667e-11
6 	0.0504271 	0 	6.66667e-11 	2.2186e-27 	-1.48924e-27 	6.66667e-11 	0 	6.66667e-11
6 	0.0504271 	0 	6.66667e-11 	2.2186e-27 	-1.48924e-27 	6.66667e-11 	0 	6.66667e-11
7 	0.0504271 	0 	6.66667e-11 	-2.30575e-28 	-3.675e-27 	6.66667e-11 	0 	6.66667e-11
7 	0.0504271 	0 	6.66667e-11 	-2.30575e-28 	-3.675e-27 	6.66667e-11 	0 	6.66667e-11
8 	0.477451 	0 	6.66667e-11 	1.41385e-27 	-7.30338e-27 	6.66667e-11 	0 	6.66667e-11
8 	0.508395 	0 	6.66667e-11 	9.84615e-28 	5.02376e-29 	6.66667e-11 	0 	6.66667e-11
0.05 	1.03529 	0 	6.66667e-11 	3.32035e-27 	9.84573e-27 	6.66667e-11 	0 	6.66667e-11
0.05 	1.03529 	0 	6.66667e-11 	3.32035e-27 	9.84573e-27 	6.66667e-11 	0 	6.66667e-11
1 	0.507284 	0 	6.66667e-11 	-1.30283e-27 	2.68186e-27 	6.66667e-11 	0 	6.66667e-11
1 	0.480463 	0 	6.66667e-11 	-6.33368e-28 	-3.956e-27 	6.66667e-11 	0 	6.66667e-11
2 	0.0504271 	0 	6.66667e-11 	-1.49086e-28 	2.31841e-27 	6.66667e-11 	0 	6.66667e-11
2 	0.0504271 	0 	6.66667e-11 	-1.49086e-28 	2.31841e-27 	6.66667e-11 	0 	6.66667e-11
3 	0.0504271 	0 	6.66667e-11 	-1.31895e-27 	-3.59731e-27 	6.66667e-11 	0 	6.66667e-11
3 	0.0504271 	0 	6.66667e-11 	-1.31895e-27 	-3.59731e-27 	6.66667e-11 	0 	6.66667e-11
4 	0.0504271 	0 	6.66667e-11 	4.83194e-28 	3.87482e-27 	6.66667e-11 	0 	6.66667e-11
4 	0.0504271 	0 	6.66667e-11 	4.83194e-28 	3.87482e-27 	6.66667e-11 	0 	6.66667e-11
5 	0.0504271 	0 	6.66667e-11 	2.01655e-27 	-8.60006e-28 	6.66667e-11 	0 	6.66667e-11
5 	0.0504271 	0 	6.66667e-11 	2.01655e-27 	-8.60006e-28 	6.66667e-11 	0 	6.66667e-11
6 	0.0504271 	0 	6.66667e-11 	2.2186e-27 	-1.48924e-27 	6.66667e-11 	0 	6.66667e-11
6 	0.0504271 	0 	6.66667e-11 	2.2186e-27 	-1.48924e-27 	6.66667e-11 	0 	6.66667e-11
7 	0.0504271 	0 	6.66667e-11 	-2.30575e-28 	-3.675e-27 	6.66667e-11 	0 	6.66667e-11
7 	0.0504271 	0 	6.66667e-11 	-2.30575e-28 	-3.675e-27 	6.66667e-11 	0 	6.66667e-11
8 	0.477451 	0 	6.66667e-11 	1.41385e-27 	-7.30338e-27 	6.66667e-11 	0 	6.66667e-11
8 	0.508395 	0 	6.66667e-11 	9.84615e-28 	5.02376e-29 	6.66667e-11 	0 	6.66667e-11
0.05 	1.03529 	0 	6.66667e-11 	3.32035e-27 	9.84573e-27 	6.66667e-11 	0 	6.66667e-11
0.05 	1.03529 	0 	6.66667e-11 	3.32035e-27 	9.84573e-27 	6.66667e-11 	0 	6.66667e-11
1 	0.512648 	0 	6.66667e-11 	2.31066e-27 	2.32846e-27 	6.66667e-11 	0 	6.66667e-11
1 	0.480463 	0 	6.66667e-11 	-6.33368e-28 	-3.956e-27 	6.66667e-11 	0 	6.66667e-11
2 	0.0566158 	0 	6.66667e-11 	2.51699e-27 	-2.91112e-27 	6.66667e-11 	0 	6.66667e-11
2 	0.0566158 	0 	6.66667e-11 	2.51699e-27 	-2.91112e-27 	6.66667e-11 	0 	6.66667e-11
3 	0.0566158 	0 	6.66667e-11 	1.15181e-27 	1.18145e-27 	6.66667e-11 	0 	6.66667e-11
3 	0.0566158 	0 	6.66667e-11 	1.15181e-27 	1.18145e-27 	6.66667e-11 	0 	6.66667e-11
4 	0.0566158 	0 	6.66667e-11 	2.25838e-28 	-2.15e-27 	6.66667e-11 	0 	6.66667e-11
4 	0.0566158 	0 	6.66667e-11 	2.25838e-28 	-2.15e-27 	6.66667e-11 	0 	6.66667e-11
5 	0.0566158 	0 	6.66667e-11 	-4.53597e-28 	-1.90958e-27 	6.66667e-11 	0 	6.66667e-11
5 	0.0566158 	0 	6.66667e-11 	-4.53597e-28 	-1.90958e-27 	6.66667e-11 	0 	6.66667e-11
6 	0.0566158 	0 	6.66667e-11 	7.28989e-28 	-9.85732e-27 	6.66667e-11 	0 	6.66667e-11
6 	0.0566158 	0 	6.66667e-11 	7.28989e-28 	-9.85732e-27 	6.66667e-11 	0 	6.66667e-11
7 	0.0566158 	0 	6.66667e-11 	1.99759e-27 	1.9366e-27 	6.66667e-11 	0 	6.66667e-11
7 	0.0566158 	0 	6.66667e-11 	1.99759e-27 	1.9366e-27 	6.66667e-11 	0 	6.66667e-11
8 	0.48364 	0 	6.66667e-11 	2.48799e-28 	-6.03264e-27 	6.66667e-11 	0 	6.66667e-11
8 	0.514584 	0 	6.66667e-11 	1.61974e-27 	-2.84851e-28 	6.66667e-11 	0 	6.66667e-11
0.05 	1.03965 	0 	6.66667e-11 	-1.04955e-27 	-8.39005e-27 	6.66667e-11 	0 	6.66667e-11
0.05 	1.03965 	0 	6.66667e-11 	-1.04955e-27 	-8.39005e-27 	6.66667e-11 	0 	6.66667e-11
1 	0.518012 	0 	6.66667e-11 	-6.83816e-28 	-4.00773e-27 	6.66667e-11 	0 	6.66667e-11
1 	0.485827 	0 	6.66667e-11 	2.02131e-28 	3.86147e-27 	6.66667e-11 	0 	6.66667e-11
2 	0.0566158 	0 	6.66667e-11 	2.51699e-27 	-2.91112e-27 	6.66667e-11 	0 	6.66667e-11
2 	0.0566158 	0 	6.66667e-11 	2.51699e-27 	-2.91112e-27 	6.66667e-11 	0 	6.66667e-11
3 	0.0566158 	0 	6.66667e-11 	1.15181e-27 	1.18145e-27 	6.66667e-11 	0 	6.66667e-11
3 	0.0566158 	0 	6.66667e-11 	1.15181e-27 	1.18145e-27 	6.66667e-11 	0 	6.66667e-11
4 	0.0566158 	0 	6.66667e-11 	2.25838e-28 	-2.15e-27 	6.66667e-11 	0 	6.66667e-11
4 	0.0566158 	0 	6.66667e-11 	2.25838e-28 	-2.15e-27 	6.66667e-11 	0 	6.66667e-11
5 	0.0566158 	0 	6.66667e-11 	-4.53597e-28 	-1.90958e-27 	6.66667e-11 	0 	6.66667e-11
5 	0.0566158 	0 	6.66667e-11 	-4.53597e-28 	-1.90958e-27 	6.66667e-11 	0 	6.66667e-11
6 	0.0566158 	0 	6.66667e-11 	7.28989e-28 	-9.85732e-27 	6.66667e-11 	0 	6.66667e-11
6 	0.0566158 	0 	6.66667e-11 	7.28989e-28 	-9.85732e-27 	6.66667e-11 	0 	6.66667e-11
7 	0.0566158 	0 	6.66667e-11 	1.99759e-27 	1.9366e-27 	6.66667e-11 	0 	6.66667e-11
7 	0.0566158 	0 	6.66667e-11 	1.99759e-27 	1.9366e-27 	6.66667e-11 	0 	6.66667e-11
8 	0.48364 	0 	6.66667e-11 	2.48799e-28 	-6.03264e-27 	6.66667e-11 	0 	6.66667e-11
8 	0.514584 	0 	6.66667e-11 	1.61974e-27 	-2.84851e-28 	6.66667e-11 	0 	6.66667e-11
0.05 	1.04401 	0 	6.66667e-11 	-1.60512e-27 	2.17551e-27 	6.66667e-11 	0 	6.66667e-11
0.05 	1.04401 	0 	6.66667e-11 	-1.60512e-27 	2.17551e-27 	6.66667e-11 	0 	6.66667e-11
1 	0.518012 	0 	6.66667e-11 	-6.83816e-28 	-4.00773e-27 	6.66667e-11 	0 	6.66667e-11
1 	0.491191 	0 	6.66667e-11 	-9.55976e-28 	-2.2186e-27 	6.66667e-11 	0 	6.66667e-11
2 	0.0628046 	0 	6.66667e-11 	-1.3103e-27 	-3.94903e-27 	6.66667e-11 	0 	6.66667e-11
2 	0.0628046 	0 	6.66667e-11 	-1.3103e-27 	-3.94903e-27 	6.66667e-11 	0 	6.66667e-11
3 	0.0628046 	0 	6.66667e-11 	-3.10803e-28 	-2.576e-27 	6.66667e-11 	0 	6.66667e-11
3 	0.0628046 	0 	6.66667e-11 	-3.10803e-28 	-2.576e-27 	6.66667e-11 	0 	6.66667e-11
4 	0.0628046 	0 	6.66667e-11 	-1.53943e-27 	-5.23662e-27 	6.66667e-11 	0 	6.66667e-11
4 	0.0628046 	0 	6.66667e-11 	-1.53943e-27 	-5.23662e-27 	6.66667e-11 	0 	6.66667e-11
5 	0.0628046 	0 	6.66667e-11 	-2.98004e-28 	-1.48367e-27 	6.66667e-11 	0 	6.66667e-11
5 	0.0628046 	0 	6.66667e-11 	-2.98004e-28 	-1.48367e-27 	6.66667e-11 	0 	6.66667e-11
6 	0.0628046 	0 	6.66667e-11 	-1.18351e-27 	6.71406e-27 	6.66667e-11 	0 	6.66667e-11
6 	0.0628046 	0 	6.66667e-11 	-1.18351e-27 	6.71406e-27 	6.66667e-11 	0 	6.66667e-11
7 	0.0628046 	0 	6.66667e-11 	1.73068e-28 	5.52024e-27 	6.66667e-11 	0 	6.66667e-11
7 	0.0628046 	0 	6.66667e-11 	1.73068e-28 	5.52024e-27 	6.66667e-11 	0 	6.66667e-11
8 	0.489829 	0 	6.66667e-11 	-2.86785e-27 	-2.42217e-27 	6.66667e-11 	0 	6.66667e-11
8 	0.520773 	0 	6.66667e-11 	8.816e-28 	3.17606e-27 	6.66667e-11 	0 	6.66667e-11
0.05 	1.04838 	0 	6.66667e-11 	-7.20747e-28 	3.64366e-27 	6.66667e-11 	0 	6.66667e-11
0.05 	1.04838 	0 	6.66667e-11 	-7.20747e-28 	3.64366e-27 	6.66667e-11 	0 	6.66667e-11
1 	0.523376 	0 	6.66667e-11 	-1.64814e-27 	9.7041e-28 	6.66667e-11 	0 	6.66667e-11
1 	0.496555 	0 	6.66667e-11 	2.46051e-27 	-4.19349e-27 	6.66667e-11 	0 	6.66667e-11
2 	0.0689934 	0 	6.66667e-11 	-7.29143e-28 	-7.39677e-29 	6.66667e-11 	0 	6.66667e-11
2 	0.0689934 	0 	6.66667e-11 	-7.29143e-28 	-7.39677e-29 	6.66667e-11 	0 	6.66667e-11
3 	0.0689934 	0 	6.66667e-11 	1.44504e-27 	-1.49774e-27 	6.66667e-11 	0 	6.66667e-11
3 	0.0689934 	0 	6.66667e-11 	1.44504e-27 	-1.49774e-27 	6.66667e-11 	0 	6.66667e-11
4 	0.0689934 	0 	6.66667e-11 	2.23112e-28 	-1.0532e-27 	6.66667e-11 	0 	6.66667e-11
4 	0.0689934 	0 	6.66667e-11 	2.23112e-28 	-1.0532e-27 	6.66667e-11 	0 	6.66667e-11
5 	0.0689934 	0 	6.66667e-11 	6.81541e-29 	4.8299e-27 	6.66667e-11 	0 	6.66667e-11
5 	0.0689934 	0 	6.66667e-11 	6.81541e-29 	4.8299e-27 	6.66667e-11 	0 	6.66667e-11
6 	0.0689934 	0 	6.66667e-11 	2.23295e-27 	-4.72095e-27 	6.66667e-11 	0 	6.66667e-11
6 	0.0689934 	0 	6.66667e-11 	2.23295e-27 	-4.72095e-27 	6.66667e-11 	0 	6.66667e-11
7 	0.0689934 	0 	6.66667e-11 	1.17326e-27 	2.85649e-32 	6.66667e-11 	0 	6.66667e-11
7 	0.0689934 	0 	6.66667e-11 	1.17326e-27 	2.85649e-32 	6.66667e-11 	0 	6.66667e-11
8 	0.496018 	0 	6.66667e-11 	7.20918e-28 	1.94784e-27 	6.66667e-11 	0 	6.66667e-11
8 	0.520773 	0 	6.66667e-11 	8.816e-28 	3.17606e-27 	6.66667e-11 	0 	6.66667e-11
0.05 	1.04838 	0 	6.66667e-11 	-7.20747e-28 	3.64366e-27 	6.66667e-11 	0 	6.66667e-11
0.05 	1.04838 	0 	6.66667e-11 	-7.20747e-28 	3.64366e-27 	6.66667e-11 	0 	6.66667e-11
1 	0.52874 	0 	6.66667e-11 	1.19517e-27 	3.15732e-27 	6.66667e-11 	0 	6.66667e-11
1 	0.496555 	0 	6.66667e-11 	2.46051e-27 	-4.19349e-27 	6.66667e-11 	0 	6.66667e-11
2 	0.0751821 	0 	6.66667e-11 	1.5702e-27 	-2.2669e-27 	6.66667e-11 	0 	6.66667e-11
2 	0.0751821 	0 	6.66667e-11 	1.5702e-27 	-2.2669e-27 	6.66667e-11 	0 	6.66667e-11
3 	0.0751821 	0 	6.66667e-11 	-2.28948e-27 	1.77612e-27 	6.66667e-11 	0 	6.66667e-11
3 	0.0751821 	0 	6.66667e-11 	-2.28948e-27 	1.77612e-27 	6.66667e-11 	0 	6.66667e-11
4 	0.0751821 	0 	6.66667e-11 	9.28835e-28 	3.2309e-27 	6.66667e-11 	0 	6.66667e-11
4 	0.0751821 	0 	6.66667e-11 	9.28835e-28 	3.2309e-27 	6.66667e-11 	0 	6.66667e-11
5 	0.0751821 	0 	6.66667e-11 	1.17524e-28 	2.17235e-27 	6.66667e-11 	0 	6.66667e-11
5 	0.0751821 	0 	6.66667e-11 	1.17524e-28 	2.17235e-27 	6.66667e-11 	0 	6.66667e-11
6 	0.0751821 	0 	6.66667e-11 	4.07941e-28 	-1.00495e-27 	6.66667e-11 	0 	6.66667e-11
6 	0.0751821 	0 	6.66667e-11 	4.07941e-28 	-1.00495e-27 	6.66667e-11 	0 	6.66667e-11
7 	0.0751821 	0 	6.66667e-11 	1.09347e-27 	-3.83128e-28 	6.66667e-11 	0 	6.66667e-11
7 	0.0751821 	0 	6.66667e-11 	1.09347e-27 	-3.83128e-28 	6.66667e-11 	0 	6.66667e-11
8 	0.496018 	0 	6.66667e-11 	7.20918e-28 	1.94784e-27 	6.66667e-11 	0 	6.66667e-11
8 	0.526961 	0 	6.66667e-11 	3.79202e-28 	-7.40268e-27 	6.66667e-11 	0 	6.66667e-11
0.05 	1.05274 	0 	6.66667e-11 	1.12161e-28 	7.29941e-27 	6.66667e-11 	0 	6.66667e-11