0.00043385 	6.66667e-11 	-1.27925e-10 	3.28722e-33 	6.66667e-11 	0 	6.66667e-11
0.00132759 	6.66667e-11 	-1.26772e-11 	3.16643e-27 	6.66667e-11 	0 	6.66667e-11
0.00227498 	6.66667e-11 	-1.25909e-26 	2.48182e-26 	6.66667e-11 	0 	6.66667e-11
0.00327924 	6.66667e-11 	2.50119e-26 	-2.20245e-26 	6.66667e-11 	0 	6.66667e-11
0.00434378 	6.66667e-11 	2.72087e-27 	-6.89162e-27 	6.66667e-11 	0 	6.66667e-11
0.00547221 	6.66667e-11 	-1.04422e-26 	-1.72791e-26 	6.66667e-11 	0 	6.66667e-11
0.00666839 	6.66667e-11 	9.40104e-27 	1.49952e-26 	6.66667e-11 	0 	6.66667e-11
0.00793636 	6.66667e-11 	-9.03683e-27 	-1.66763e-26 	6.66667e-11 	0 	6.66667e-11
0.00928045 	6.66667e-11 	5.56064e-27 	3.61073e-26 	6.66667e-11 	0 	6.66667e-11
0.0107052 	6.66667e-11 	-9.11847e-27 	-1.0373e-26 	6.66667e-11 	0 	6.66667e-11
0.0122155 	6.66667e-11 	7.58388e-27 	5.72509e-27 	6.66667e-11 	0 	6.66667e-11
0.0138164 	6.66667e-11 	1.75778e-28 	-5.75819e-26 	6.66667e-11 	0 	6.66667e-11
0.0155135 	6.66667e-11 	-1.49351e-26 	3.74301e-26 	6.66667e-11 	0 	6.66667e-11
0.0173124 	6.66667e-11 	5.90419e-27 	6.73041e-27 	6.66667e-11 	0 	6.66667e-11
0.0192193 	6.66667e-11 	6.74541e-27 	7.68935e-28 	6.66667e-11 	0 	6.66667e-11
0.0212406 	6.66667e-11 	6.9506e-27 	5.68039e-27 	6.66667e-11 	0 	6.66667e-11
0.0233833 	6.66667e-11 	1.83204e-28 	3.37208e-26 	6.66667e-11 	0 	6.66667e-11
0.0256546 	6.66667e-11 	-6.85599e-27 	-2.88601e-26 	6.66667e-11 	0 	6.66667e-11
0.0280623 	6.66667e-11 	-5.24583e-27 	-6.06699e-27 	6.66667e-11 	0 	6.66667e-11
0.0306144 	6.66667e-11 	5.43022e-27 	-2.1077e-27 	6.66667e-11 	0 	6.66667e-11
0.0333198 	6.66667e-11 	4.43196e-27 	2.27193e-28 	6.66667e-11 	0 	6.66667e-11
0.0361875 	6.66667e-11 	-8.36863e-27 	1.51452e-26 	6.66667e-11 	0 	6.66667e-11
0.0392274 	6.66667e-11 	2.56045e-27 	-1.30813e-26 	6.66667e-11 	0 	6.66667e-11
0.0424498 	6.66667e-11 	-5.63193e-28 	-1.46755e-27 	6.66667e-11 	0 	6.66667e-11
0.0458656 	6.66667e-11 	4.14504e-27 	-6.47584e-27 	6.66667e-11 	0 	6.66667e-11
0.0494864 	6.66667e-11 	4.18356e-27 	5.23496e-27 	6.66667e-11 	0 	6.66667e-11
0.0533246 	6.66667e-11 	1.1764e-28 	2.37789e-30 	6.66667e-11 	0 	6.66667e-11
0.0573931 	6.66667e-11 	-2.88799e-27 	-9.7543e-28 	6.66667e-11 	0 	6.66667e-11
0.0617059 	6.66667e-11 	2.23473e-27 	-9.5575e-27 	6.66667e-11 	0 	6.66667e-11
0.0662775 	6.66667e-11 	-5.28984e-32 	9.59267e-27 	6.66667e-11 	0 	6.66667e-11
0.0711236 	6.66667e-11 	6.03574e-29 	1.06582e-27 	6.66667e-11 	0 	6.66667e-11
0.0762605 	6.66667e-11 	5.08236e-29 	1.19713e-27 	6.66667e-11 	0 	6.66667e-11
0.0817058 	6.66667e-11 	-6.99403e-31 	8.18081e-27 	6.66667e-11 	0 	6.66667e-11
0.087478 	6.66667e-11 	6.34679e-31 	-7.94469e-27 	6.66667e-11 	0 	6.66667e-11
0.0935966 	6.66667e-11 	1.86672e-27 	-9.72351e-28 	6.66667e-11 	0 	6.66667e-11
0.100083 	6.66667e-11 	-1.63503e-27 	-1.08429e-28 	6.66667e-11 	0 	6.66667e-11
0.106958 	6.66667e-11 	-2.01714e-27 	-7.61765e-28 	6.66667e-11 	0 	6.66667e-11
0.114246 	6.66667e-11 	-3.18919e-28 	-9.61311e-27 	6.66667e-11 	0 	6.66667e-11
0.121971 	6.66667e-11 	-4.08619e-29 	9.05935e-27 	6.66667e-11 	0 	6.66667e-11
0.13016 	6.66667e-11 	-1.45628e-27 	1.53194e-27 	6.66667e-11 	0 	6.66667e-11
0.138841 	6.66667e-11 	1.3928e-27 	-4.48985e-28 	6.66667e-11 	0 	6.66667e-11
0.148043 	6.66667e-11 	-9.35698e-28 	-1.30232e-28 	6.66667e-11 	0 	6.66667e-11
0.157797 	6.66667e-11 	1.06489e-27 	-3.07715e-28 	6.66667e-11 	0 	6.66667e-11
0.168136 	6.66667e-11 	-2.23544e-27 	-2.84831e-27 	6.66667e-11 	0 	6.66667e-11
0.179097 	6.66667e-11 	-8.83316e-29 	2.11879e-27 	6.66667e-11 	0 	6.66667e-11
0.190715 	6.66667e-11 	8.42119e-28 	7.45919e-28 	6.66667e-11 	0 	6.66667e-11
0.20303 	6.66667e-11 	-1.98724e-27 	4.84714e-29 	6.66667e-11 	0 	6.66667e-11
0.216085 	6.66667e-11 	7.52879e-28 	2.59749e-32 	6.66667e-11 	0 	6.66667e-11
0.229923 	6.66667e-11 	-7.57157e-28 	4.40796e-33 	6.66667e-11 	0 	6.66667e-11
0.244592 	6.66667e-11 	-5.91693e-29 	5.10226e-32 	6.66667e-11 	0 	6.66667e-11
0.260142 	6.66667e-11 	-6.94761e-28 	-3.36026e-33 	6.66667e-11 	0 	6.66667e-11
0.276625 	6.66667e-11 	1.1254e-28 	2.17695e-28 	6.66667e-11 	0 	6.66667e-11
0.294097 	6.66667e-11 	1.74308e-28 	2.3198e-27 	6.66667e-11 	0 	6.66667e-11
0.312618 	6.66667e-11 	-4.74267e-29 	-2.01313e-27 	6.66667e-11 	0 	6.66667e-11
0.332251 	6.66667e-11 	-7.67532e-28 	-3.58878e-28 	6.66667e-11 	0 	6.66667e-11
0.353063 	6.66667e-11 	-6.76626e-28 	1.17388e-33 	6.66667e-11 	0 	6.66667e-11
0.375123 	6.66667e-11 	-5.38809e-30 	-6.00645e-33 	6.66667e-11 	0 	6.66667e-11
0.398508 	6.66667e-11 	5.54155e-28 	-6.38925e-32 	6.66667e-11 	0 	6.66667e-11
0.423296 	6.66667e-11 	-4.72538e-28 	1.23887e-28 	6.66667e-11 	0 	6.66667e-11
0.449573 	6.66667e-11 	4.45566e-28 	3.82005e-27 	6.66667e-11 	0 	6.66667e-11
0.477427 	6.66667e-11 	-2.96138e-29 	-3.1442e-27 	6.66667e-11 	0 	6.66667e-11
0.506952 	6.66667e-11 	-4.1198e-28 	-5.57835e-28 	6.66667e-11 	0 	6.66667e-11
0.53825 	6.66667e-11 	8.54664e-28 	-8.04618e-33 	6.66667e-11 	0 	6.66667e-11
0.571427 	6.66667e-11 	-2.89922e-28 	-1.75916e-32 	6.66667e-11 	0 	6.66667e-11
0.606595 	6.66667e-11 	-3.70209e-28 	7.68733e-32 	6.66667e-11 	0 	6.66667e-11
0.643874 	6.66667e-11 	-3.04101e-29 	2.91045e-33 	6.66667e-11 	0 	6.66667e-11
0.683391 	6.66667e-11 	1.99752e-29 	1.20157e-28 	6.66667e-11 	0 	6.66667e-11
0.725279 	6.66667e-11 	4.30298e-29 	-8.68014e-30 	6.66667e-11 	0 	6.66667e-11
0.769683 	6.66667e-11 	9.85107e-30 	-1.10083e-28 	6.66667e-11 	0 	6.66667e-11
0.816751 	6.66667e-11 	-2.89778e-28 	1.38206e-30 	6.66667e-11 	0 	6.66667e-11
0.866645 	6.66667e-11 	-1.3488e-29 	-5.47261e-33 	6.66667e-11 	0 	6.66667e-11
0.919534 	6.66667e-11 	4.64663e-28 	1.18188e-28 	6.66667e-11 	0 	6.66667e-11
0.975597 	6.66667e-11 	-1.99335e-28 	7.1095e-28 	6.66667e-11 	0 	6.66667e-11
1.03503 	6.66667e-11 	-2.21553e-28 	-7.1913e-28 	6.66667e-11 	0 	6.66667e-11
1.09802 	6.66667e-11 	-1.24915e-29 	-6.93942e-28 	6.66667e-11 	0 	6.66667e-11
1.1648 	6.66667e-11 	3.04723e-29 	5.62084e-28 	6.66667e-11 	0 	6.66667e-11
1.23559 	6.66667e-11 	3.4145e-28 	5.89109e-29 	6.66667e-11 	0 	6.66667e-11
1.31062 	6.66667e-11 	-3.09377e-28 	-1.33273e-32 	6.66667e-11 	0 	6.66667e-11
1.39016 	6.66667e-11 	1.63096e-28 	6.37069e-31 	6.66667e-11 	0 	6.66667e-11
1.47447 	6.66667e-11 	1.7976e-28 	-1.89248e-31 	6.66667e-11 	0 	6.66667e-11
1.56124 	6.66667e-11 	-1.6143e-29 	-2.93147e-28 	6.66667e-11 	0 	6.66667e-11
1.64556 	6.66667e-11 	-1.62209e-28 	-1.64384e-27 	6.66667e-11 	0 	6.66667e-11
1.72509 	6.66667e-11 	1.10938e-28 	1.70191e-27 	6.66667e-11 	0 	6.66667e-11
1.80013 	6.66667e-11 	6.76865e-29 	6.63303e-28 	6.66667e-11 	0 	6.66667e-11
1.87091 	6.66667e-11 	7.23904e-29 	9.0415e-28 	6.66667e-11 	0 	6.66667e-11
1.93769 	6.66667e-11 	1.23729e-28 	-9.35617e-28 	6.66667e-11 	0 	6.66667e-11
2.00069 	6.66667e-11 	-3.22474e-29 	-3.45056e-28 	6.66667e-11 	0 	6.66667e-11
2.06012 	6.66667e-11 	-1.21082e-28 	1.25152e-31 	6.66667e-11 	0 	6.66667e-11
2.11618 	6.66667e-11 	1.6322e-28 	4.70484e-28 	6.66667e-11 	0 	6.66667e-11
2.16907 	6.66667e-11 	1.98766e-28 	1.72279e-28 	6.66667e-11 	0 	6.66667e-11
2.21896 	6.66667e-11 	-5.34776e-30 	-2.64095e-27 	6.66667e-11 	0 	6.66667e-11
2.26603 	6.66667e-11 	-1.65334e-28 	1.21288e-27 	6.66667e-11 	0 	6.66667e-11
2.31043 	6.66667e-11 	-4.92587e-29 	8.88541e-28 	6.66667e-11 	0 	6.66667e-11
2.35232 	6.66667e-11 	1.1718e-28 	9.85245e-32 	6.66667e-11 	0 	6.66667e-11
2.39184 	6.66667e-11 	7.30263e-29 	7.98314e-32 	6.66667e-11 	0 	6.66667e-11
2.42912 	6.66667e-11 	-8.14777e-30 	1.2618e-27 	6.66667e-11 	0 	6.66667e-11
2.46429 	6.66667e-11 	-1.43619e-28 	1.61573e-27 	6.66667e-11 	0 	6.66667e-11
2.49746 	6.66667e-11 	-9.96634e-29 	-1.79778e-27 	6.66667e-11 	0 	6.66667e-11
2.52876 	6.66667e-11 	1.77155e-28 	-1.41269e-27 	6.66667e-11 	0 	6.66667e-11
2.55829 	6.66667e-11 	2.8133e-28 	0 	6.66667e-11 	0 	6.66667e-11
2.57764 	6.66667e-11 	1.40954e-28 	4.72439e-33 	6.66667e-11 	0 	6.66667e-11
2.59116 	6.66667e-11 	5.84464e-29 	1.75068e-32 	6.66667e-11 	0 	6.66667e-11
2.61242 	6.66667e-11 	2.37381e-28 	2.66937e-32 	6.66667e-11 	0 	6.66667e-11
2.63721 	6.66667e-11 	3.10774e-28 	-1.57732e-33 	6.66667e-11 	0 	6.66667e-11
2.66059 	6.66667e-11 	-1.30596e-28 	-3.20505e-32 	6.66667e-11 	0 	6.66667e-11
2.68265 	6.66667e-11 	-3.88833e-28 	1.71888e-33 	6.66667e-11 	0 	6.66667e-11
2.70346 	6.66667e-11 	-5.43083e-29 	5.46933e-32 	6.66667e-11 	0 	6.66667e-11
2.7231 	6.66667e-11 	-2.70994e-28 	8.01364e-28 	6.66667e-11 	0 	6.66667e-11
2.74162 	6.66667e-11 	-3.43082e-28 	7.32809e-28 	6.66667e-11 	0 	6.66667e-11
2.75909 	6.66667e-11 	-4.09611e-31 	-9.02154e-28 	6.66667e-11 	0 	6.66667e-11
2.77557 	6.66667e-11 	-1.56705e-28 	-8.33967e-28 	6.66667e-11 	0 	6.66667e-11
2.79112 	6.66667e-11 	-3.36708e-28 	1.03356e-32 	6.66667e-11 	0 	6.66667e-11
2.80579 	6.66667e-11 	-6.29031e-28 	-7.14334e-30 	6.66667e-11 	0 	6.66667e-11
2.81963 	6.66667e-11 	5.45601e-28 	-1.09397e-27 	6.66667e-11 	0 	6.66667e-11
2.83268 	6.66667e-11 	1.40536e-28 	1.17427e-27 	6.66667e-11 	0 	6.66667e-11
2.845 	6.66667e-11 	-2.02809e-28 	-7.00739e-30 	6.66667e-11 	0 	6.66667e-11
2.85662 	6.66667e-11 	-4.03176e-28 	-5.06138e-27 	6.66667e-11 	0 	6.66667e-11
2.86758 	6.66667e-11 	-4.75056e-28 	-5.3153e-27 	6.66667e-11 	0 	6.66667e-11
2.87792 	6.66667e-11 	3.02019e-28 	1.34484e-26 	6.66667e-11 	0 	6.66667e-11
2.88767 	6.66667e-11 	-5.81139e-28 	9.23658e-27 	6.66667e-11 	0 	6.66667e-11
2.89687 	6.66667e-11 	-2.33779e-28 	1.19242e-26 	6.66667e-11 	0 	6.66667e-11
2.90555 	6.66667e-11 	6.7127e-28 	-1.68543e-26 	6.66667e-11 	0 	6.66667e-11
2.91374 	6.66667e-11 	-4.60664e-28 	-5.79988e-27 	6.66667e-11 	0 	6.66667e-11
2.92147 	6.66667e-11 	-4.29869e-28 	6.00416e-27 	6.66667e-11 	0 	6.66667e-11
2.92876 	6.66667e-11 	-5.81185e-28 	-6.82625e-27 	6.66667e-11 	0 	6.66667e-11
2.93563 	6.66667e-11 	1.97683e-28 	-3.63404e-27 	6.66667e-11 	0 	6.66667e-11
2.94212 	6.66667e-11 	-2.22767e-27 	4.31279e-27 	6.66667e-11 	0 	6.66667e-11
2.94824 	6.66667e-11 	8.51851e-29 	7.79117e-27 	6.66667e-11 	0 	6.66667e-11
2.95401 	6.66667e-11 	2.08739e-27 	-8.8234e-27 	6.66667e-11 	0 	6.66667e-11
2.95945 	6.66667e-11 	-8.57757e-28 	-1.46898e-26 	6.66667e-11 	0 	6.66667e-11
2.96459 	6.66667e-11 	-1.26378e-27 	-1.88526e-26 	6.66667e-11 	0 	6.66667e-11
2.96944 	6.66667e-11 	-4.26091e-28 	2.13312e-26 	6.66667e-11 	0 	6.66667e-11
2.97401 	6.66667e-11 	-1.75887e-30 	1.06812e-26 	6.66667e-11 	0 	6.66667e-11
2.97832 	6.66667e-11 	-1.9475e-27 	3.73422e-33 	6.66667e-11 	0 	6.66667e-11
2.98239 	6.66667e-11 	2.17841e-27 	2.42528e-37 	6.66667e-11 	0 	6.66667e-11
2.98623 	6.66667e-11 	1.58383e-27 	7.10142e-27 	6.66667e-11 	0 	6.66667e-11
2.98985 	6.66667e-11 	-2.3922e-27 	2.08002e-26 	6.66667e-11 	0 	6.66667e-11
2.99326 	6.66667e-11 	1.34983e-27 	-3.88435e-26 	6.66667e-11 	0 	6.66667e-11
2.99649 	6.66667e-11 	6.32842e-28 	-3.42632e-26 	6.66667e-11 	0 	6.66667e-11
2.99953 	6.66667e-11 	7.52599e-28 	4.74899e-26 	6.66667e-11 	0 	6.66667e-11
3.00239 	6.66667e-11 	2.26269e-27 	2.8604e-27 	6.66667e-11 	0 	6.66667e-11
3.0051 	6.66667e-11 	-8.40117e-28 	-4.42384e-27 	6.66667e-11 	0 	6.66667e-11
3.00765 	6.66667e-11 	9.81401e-29 	-5.26761e-27 	6.66667e-11 	0 	6.66667e-11
3.01006 	6.66667e-11 	-1.0514e-27 	-1.61023e-26 	6.66667e-11 	0 	6.66667e-11
3.01233 	6.66667e-11 	-9.96237e-28 	1.7741e-26 	6.66667e-11 	0 	6.66667e-11
3.01447 	6.66667e-11 	-3.08601e-27 	5.55306e-27 	6.66667e-11 	0 	6.66667e-11
3.01649 	6.66667e-11 	1.12032e-27 	-6.61269e-27 	6.66667e-11 	0 	6.66667e-11
3.0184 	6.66667e-11 	3.48366e-27 	7.43639e-27 	6.66667e-11 	0 	6.66667e-11
3.0202 	6.66667e-11 	1.25992e-27 	7.94763e-26 	6.66667e-11 	0 	6.66667e-11
3.0219 	6.66667e-11 	3.92992e-27 	-5.68296e-26 	6.66667e-11 	0 	6.66667e-11
3.0235 	6.66667e-11 	-4.33066e-27 	-2.95784e-26 	6.66667e-11 	0 	6.66667e-11
3.02501 	6.66667e-11 	-2.95846e-27 	1.75982e-26 	6.66667e-11 	0 	6.66667e-11
3.02643 	6.66667e-11 	4.87856e-27 	3.60824e-26 	6.66667e-11 	0 	6.66667e-11
3.02778 	6.66667e-11 	-1.16924e-26 	-4.04852e-26 	6.66667e-11 	0 	6.66667e-11
3.02905 	6.66667e-11 	-3.35483e-27 	-1.86074e-26 	6.66667e-11 	0 	6.66667e-11
