0.00043385 	6.66667e-11 	-1.42096e-10 	1.02078e-32 	6.66667e-11 	0 	6.66667e-11
0.00132759 	6.66667e-11 	-2.67929e-11 	-4.23704e-27 	6.66667e-11 	0 	6.66667e-11
0.00227498 	6.66667e-11 	2.76332e-27 	-4.45906e-27 	6.66667e-11 	0 	6.66667e-11
0.00327924 	6.66667e-11 	-3.75603e-27 	3.75722e-27 	6.66667e-11 	0 	6.66667e-11
0.00434378 	6.66667e-11 	-1.96954e-27 	3.9781e-27 	6.66667e-11 	0 	6.66667e-11
0.00547221 	6.66667e-11 	-1.55944e-27 	-6.63127e-27 	6.66667e-11 	0 	6.66667e-11
0.00666839 	6.66667e-11 	6.29146e-27 	-9.3365e-27 	6.66667e-11 	0 	6.66667e-11
0.00793636 	6.66667e-11 	-3.05425e-27 	8.14417e-27 	6.66667e-11 	0 	6.66667e-11
0.00928045 	6.66667e-11 	-2.10094e-27 	6.19969e-27 	6.66667e-11 	0 	6.66667e-11
0.0107052 	6.66667e-11 	5.66739e-27 	-1.03839e-26 	6.66667e-11 	0 	6.66667e-11
0.0122155 	6.66667e-11 	-7.79976e-27 	-1.73674e-26 	6.66667e-11 	0 	6.66667e-11
0.0138164 	6.66667e-11 	-4.45509e-27 	1.53791e-26 	6.66667e-11 	0 	6.66667e-11
0.0155135 	6.66667e-11 	2.53769e-27 	9.6653e-27 	6.66667e-11 	0 	6.66667e-11
0.0173124 	6.66667e-11 	3.52228e-27 	3.9791e-27 	6.66667e-11 	0 	6.66667e-11
0.0192193 	6.66667e-11 	6.63458e-27 	4.16986e-27 	6.66667e-11 	0 	6.66667e-11
0.0212406 	6.66667e-11 	2.84822e-28 	-2.71207e-30 	6.66667e-11 	0 	6.66667e-11
0.0233833 	6.66667e-11 	-2.08708e-27 	3.75699e-27 	6.66667e-11 	0 	6.66667e-11
0.0256546 	6.66667e-11 	-6.29142e-30 	-5.1433e-27 	6.66667e-11 	0 	6.66667e-11
0.0280623 	6.66667e-11 	-1.63359e-27 	-1.59388e-27 	6.66667e-11 	0 	6.66667e-11
0.0306144 	6.66667e-11 	-1.965e-27 	-1.40509e-27 	6.66667e-11 	0 	6.66667e-11
0.0333198 	6.66667e-11 	8.07187e-28 	-1.47617e-27 	6.66667e-11 	0 	6.66667e-11
0.0361875 	6.66667e-11 	9.79231e-28 	-2.76295e-32 	6.66667e-11 	0 	6.66667e-11
0.0392274 	6.66667e-11 	-2.57841e-30 	-5.13728e-32 	6.66667e-11 	0 	6.66667e-11
0.0424498 	6.66667e-11 	-5.884e-28 	-4.47861e-32 	6.66667e-11 	0 	6.66667e-11
0.0458656 	6.66667e-11 	-1.17319e-27 	5.98056e-27 	6.66667e-11 	0 	6.66667e-11
0.0494864 	6.66667e-11 	-1.50534e-27 	1.20362e-26 	6.66667e-11 	0 	6.66667e-11
0.0533246 	6.66667e-11 	2.36108e-27 	-5.79146e-27 	6.66667e-11 	0 	6.66667e-11
0.0573931 	6.66667e-11 	1.96284e-27 	-9.42098e-28 	6.66667e-11 	0 	6.66667e-11
0.0617059 	6.66667e-11 	-3.66041e-28 	-3.98032e-27 	6.66667e-11 	0 	6.66667e-11
0.0662775 	6.66667e-11 	-2.15599e-27 	-8.15953e-29 	6.66667e-11 	0 	6.66667e-11
0.0711236 	6.66667e-11 	1.1992e-27 	-2.84731e-27 	6.66667e-11 	0 	6.66667e-11
0.0762605 	6.66667e-11 	1.62944e-27 	-1.3443e-27 	6.66667e-11 	0 	6.66667e-11
0.0817058 	6.66667e-11 	-2.35603e-27 	1.24728e-33 	6.66667e-11 	0 	6.66667e-11
0.087478 	6.66667e-11 	-6.54774e-28 	-2.84523e-32 	6.66667e-11 	0 	6.66667e-11
0.0935966 	6.66667e-11 	2.61579e-31 	4.81136e-28 	6.66667e-11 	0 	6.66667e-11
0.100083 	6.66667e-11 	3.45667e-28 	2.00968e-27 	6.66667e-11 	0 	6.66667e-11
0.106958 	6.66667e-11 	-7.4824e-28 	-1.86855e-27 	6.66667e-11 	0 	6.66667e-11
0.114246 	6.66667e-11 	-2.72718e-29 	-1.92317e-27 	6.66667e-11 	0 	6.66667e-11
0.121971 	6.66667e-11 	4.15935e-28 	-4.45335e-27 	6.66667e-11 	0 	6.66667e-11
0.13016 	6.66667e-11 	2.17754e-29 	4.20481e-27 	6.66667e-11 	0 	6.66667e-11
0.138841 	6.66667e-11 	-5.13295e-28 	1.30789e-27 	6.66667e-11 	0 	6.66667e-11
0.148043 	6.66667e-11 	-1.87724e-28 	5.37759e-28 	6.66667e-11 	0 	6.66667e-11
0.157797 	6.66667e-11 	1.10184e-27 	2.6936e-27 	6.66667e-11 	0 	6.66667e-11
0.168136 	6.66667e-11 	-9.17017e-28 	-9.00483e-27 	6.66667e-11 	0 	6.66667e-11
0.179097 	6.66667e-11 	-1.0559e-27 	2.46142e-27 	6.66667e-11 	0 	6.66667e-11
0.190715 	6.66667e-11 	6.99632e-28 	2.07846e-27 	6.66667e-11 	0 	6.66667e-11
0.20303 	6.66667e-11 	-9.89246e-28 	-4.26178e-27 	6.66667e-11 	0 	6.66667e-11
0.216085 	6.66667e-11 	8.65333e-28 	4.38115e-27 	6.66667e-11 	0 	6.66667e-11
0.229923 	6.66667e-11 	1.62254e-28 	4.2193e-28 	6.66667e-11 	0 	6.66667e-11
0.244592 	6.66667e-11 	-7.29203e-28 	2.37473e-31 	6.66667e-11 	0 	6.66667e-11
0.260142 	6.66667e-11 	8.24237e-28 	2.1168e-32 	6.66667e-11 	0 	6.66667e-11
0.276625 	6.66667e-11 	7.13601e-28 	-3.80215e-28 	6.66667e-11 	0 	6.66667e-11
0.294097 	6.66667e-11 	-8.54421e-28 	-2.23347e-27 	6.66667e-11 	0 	6.66667e-11
0.312618 	6.66667e-11 	4.80385e-28 	2.2101e-27 	6.66667e-11 	0 	6.66667e-11
0.332251 	6.66667e-11 	1.60986e-28 	2.65196e-28 	6.66667e-11 	0 	6.66667e-11
0.353063 	6.66667e-11 	1.21958e-28 	-2.12746e-33 	6.66667e-11 	0 	6.66667e-11
0.375123 	6.66667e-11 	4.15417e-29 	-3.28351e-28 	6.66667e-11 	0 	6.66667e-11
0.398508 	6.66667e-11 	-5.94786e-28 	-3.97252e-27 	6.66667e-11 	0 	6.66667e-11
0.423296 	6.66667e-11 	-5.49435e-29 	2.86085e-27 	6.66667e-11 	0 	6.66667e-11
0.449573 	6.66667e-11 	8.98875e-28 	-1.31329e-27 	6.66667e-11 	0 	6.66667e-11
0.477427 	6.66667e-11 	-1.25238e-27 	2.71228e-28 	6.66667e-11 	0 	6.66667e-11
0.506952 	6.66667e-11 	3.04765e-28 	1.36844e-27 	6.66667e-11 	0 	6.66667e-11
0.53825 	6.66667e-11 	-3.71612e-28 	2.82185e-28 	6.66667e-11 	0 	6.66667e-11
0.571427 	6.66667e-11 	-3.40127e-28 	4.19765e-29 	6.66667e-11 	0 	6.66667e-11
0.606595 	6.66667e-11 	7.60528e-28 	1.00262e-28 	6.66667e-11 	0 	6.66667e-11
0.643874 	6.66667e-11 	3.72873e-28 	8.89834e-28 	6.66667e-11 	0 	6.66667e-11
0.683391 	6.66667e-11 	-5.23515e-28 	-7.98667e-28 	6.66667e-11 	0 	6.66667e-11
0.725279 	6.66667e-11 	-4.59768e-29 	-1.33975e-28 	6.66667e-11 	0 	6.66667e-11
0.769683 	6.66667e-11 	4.45339e-29 	8.2751e-31 	6.66667e-11 	0 	6.66667e-11
0.816751 	6.66667e-11 	4.27788e-29 	2.15738e-31 	6.66667e-11 	0 	6.66667e-11
0.857086 	6.66667e-11 	3.98399e-29 	2.93543e-31 	6.66667e-11 	0 	6.66667e-11
0.882762 	6.66667e-11 	-4.39947e-29 	3.87507e-31 	6.66667e-11 	0 	6.66667e-11
0.919545 	6.66667e-11 	-1.99634e-28 	3.52792e-28 	6.66667e-11 	0 	6.66667e-11
0.975622 	6.66667e-11 	-1.24233e-28 	6.039e-28 	6.66667e-11 	0 	6.66667e-11
1.03506 	6.66667e-11 	3.70829e-28 	-1.43341e-27 	6.66667e-11 	0 	6.66667e-11
1.09807 	6.66667e-11 	2.49548e-29 	7.13811e-28 	6.66667e-11 	0 	6.66667e-11
1.16486 	6.66667e-11 	-4.26665e-29 	1.27825e-27 	6.66667e-11 	0 	6.66667e-11
1.23566 	6.66667e-11 	3.3297e-29 	-8.71166e-28 	6.66667e-11 	0 	6.66667e-11
1.31071 	6.66667e-11 	2.94308e-28 	-1.19395e-28 	6.66667e-11 	0 	6.66667e-11
1.39026 	6.66667e-11 	-1.45326e-28 	-9.10252e-29 	6.66667e-11 	0 	6.66667e-11
1.47458 	6.66667e-11 	-1.29082e-29 	-7.46163e-29 	6.66667e-11 	0 	6.66667e-11
1.56136 	6.66667e-11 	1.6746e-29 	1.26407e-31 	6.66667e-11 	0 	6.66667e-11
1.64568 	6.66667e-11 	1.05348e-28 	3.76397e-31 	6.66667e-11 	0 	6.66667e-11
1.71528 	6.66667e-11 	8.0103e-29 	4.92446e-31 	6.66667e-11 	0 	6.66667e-11
1.75391 	6.66667e-11 	6.52678e-29 	7.77444e-32 	6.66667e-11 	0 	6.66667e-11
1.80032 	6.66667e-11 	-3.17454e-29 	2.65563e-32 	6.66667e-11 	0 	6.66667e-11
1.87118 	6.66667e-11 	-3.08187e-28 	1.24515e-30 	6.66667e-11 	0 	6.66667e-11
1.93802 	6.66667e-11 	5.31341e-30 	2.76965e-28 	6.66667e-11 	0 	6.66667e-11
2.00106 	6.66667e-11 	3.12048e-29 	1.25313e-27 	6.66667e-11 	0 	6.66667e-11
2.06053 	6.66667e-11 	-2.04555e-29 	-1.54329e-27 	6.66667e-11 	0 	6.66667e-11
2.11662 	6.66667e-11 	-2.92492e-28 	-5.64429e-28 	6.66667e-11 	0 	6.66667e-11
2.16953 	6.66667e-11 	-1.59997e-29 	-3.37257e-27 	6.66667e-11 	0 	6.66667e-11
2.21944 	6.66667e-11 	3.48492e-28 	1.86793e-27 	6.66667e-11 	0 	6.66667e-11
2.26652 	6.66667e-11 	-2.69767e-28 	2.28581e-27 	6.66667e-11 	0 	6.66667e-11
2.31093 	6.66667e-11 	-2.42863e-29 	1.5727e-28 	6.66667e-11 	0 	6.66667e-11
2.35282 	6.66667e-11 	-3.0038e-29 	-7.19919e-28 	6.66667e-11 	0 	6.66667e-11
2.39233 	6.66667e-11 	-3.22864e-28 	-3.94517e-27 	6.66667e-11 	0 	6.66667e-11
2.42961 	6.66667e-11 	-1.3862e-28 	4.45672e-27 	6.66667e-11 	0 	6.66667e-11
2.46477 	6.66667e-11 	-2.76876e-28 	2.90727e-27 	6.66667e-11 	0 	6.66667e-11
2.49793 	6.66667e-11 	2.6939e-28 	-2.34247e-27 	6.66667e-11 	0 	6.66667e-11
2.52922 	6.66667e-11 	1.41007e-28 	-8.19738e-28 	6.66667e-11 	0 	6.66667e-11
2.55874 	6.66667e-11 	-1.33833e-28 	4.63097e-28 	6.66667e-11 	0 	6.66667e-11
2.57806 	6.66667e-11 	-1.91611e-28 	-6.61268e-28 	6.66667e-11 	0 	6.66667e-11
2.59158 	6.66667e-11 	-2.05893e-28 	-2.49526e-27 	6.66667e-11 	0 	6.66667e-11
2.61285 	6.66667e-11 	-4.81594e-29 	-2.35257e-27 	6.66667e-11 	0 	6.66667e-11
2.63764 	6.66667e-11 	2.04039e-28 	3.10295e-27 	6.66667e-11 	0 	6.66667e-11
2.66101 	6.66667e-11 	-1.75135e-28 	1.55465e-27 	6.66667e-11 	0 	6.66667e-11
2.68307 	6.66667e-11 	9.76658e-29 	7.11234e-32 	6.66667e-11 	0 	6.66667e-11
2.70387 	6.66667e-11 	-1.07776e-28 	-1.15194e-27 	6.66667e-11 	0 	6.66667e-11
2.72349 	6.66667e-11 	-5.46832e-28 	-2.74176e-27 	6.66667e-11 	0 	6.66667e-11
2.742 	6.66667e-11 	9.39823e-29 	3.08339e-27 	6.66667e-11 	0 	6.66667e-11
2.75946 	6.66667e-11 	-2.89913e-28 	-1.45656e-27 	6.66667e-11 	0 	6.66667e-11
2.77593 	6.66667e-11 	-1.03583e-27 	1.29038e-26 	6.66667e-11 	0 	6.66667e-11
2.79147 	6.66667e-11 	8.98286e-28 	-1.01814e-26 	6.66667e-11 	0 	6.66667e-11
2.80612 	6.66667e-11 	3.2595e-28 	-8.07815e-28 	6.66667e-11 	0 	6.66667e-11
2.81995 	6.66667e-11 	7.76655e-29 	-1.96148e-28 	6.66667e-11 	0 	6.66667e-11
2.83299 	6.66667e-11 	9.6823e-29 	-1.28367e-26 	6.66667e-11 	0 	6.66667e-11
2.84529 	6.66667e-11 	1.26297e-27 	1.21165e-26 	6.66667e-11 	0 	6.66667e-11
2.85689 	6.66667e-11 	6.02765e-29 	3.34283e-27 	6.66667e-11 	0 	6.66667e-11
2.86784 	6.66667e-11 	-1.32456e-27 	7.63869e-27 	6.66667e-11 	0 	6.66667e-11
2.87817 	6.66667e-11 	1.77786e-28 	-9.17344e-27 	6.66667e-11 	0 	6.66667e-11
2.88791 	6.66667e-11 	1.39443e-27 	-9.10607e-28 	6.66667e-11 	0 	6.66667e-11
2.8971 	6.66667e-11 	-1.51724e-27 	-1.64295e-27 	6.66667e-11 	0 	6.66667e-11
2.90577 	6.66667e-11 	-2.07914e-28 	-1.9141e-26 	6.66667e-11 	0 	6.66667e-11
2.91395 	6.66667e-11 	-1.46601e-27 	2.01381e-26 	6.66667e-11 	0 	6.66667e-11
2.92166 	6.66667e-11 	1.85535e-27 	1.166e-26 	6.66667e-11 	0 	6.66667e-11
2.92894 	6.66667e-11 	-1.31558e-28 	-2.40615e-26 	6.66667e-11 	0 	6.66667e-11
2.9358 	6.66667e-11 	-3.41801e-28 	1.08567e-26 	6.66667e-11 	0 	6.66667e-11
2.94228 	6.66667e-11 	-1.96885e-27 	1.62641e-27 	6.66667e-11 	0 	6.66667e-11
2.94839 	6.66667e-11 	5.73211e-29 	-1.15902e-28 	6.66667e-11 	0 	6.66667e-11
2.95415 	6.66667e-11 	-3.42963e-28 	2.49279e-27 	6.66667e-11 	0 	6.66667e-11
2.95959 	6.66667e-11 	1.65862e-28 	-2.79597e-27 	6.66667e-11 	0 	6.66667e-11
2.96472 	6.66667e-11 	6.56467e-28 	1.57571e-28 	6.66667e-11 	0 	6.66667e-11
2.96955 	6.66667e-11 	2.56497e-27 	3.60836e-27 	6.66667e-11 	0 	6.66667e-11
2.97412 	6.66667e-11 	-2.89718e-27 	-1.40786e-27 	6.66667e-11 	0 	6.66667e-11
2.97842 	6.66667e-11 	3.4213e-27 	7.08776e-29 	6.66667e-11 	0 	6.66667e-11
2.98249 	6.66667e-11 	5.68683e-28 	-2.93678e-28 	6.66667e-11 	0 	6.66667e-11
2.98632 	6.66667e-11 	-6.08043e-28 	-2.03884e-26 	6.66667e-11 	0 	6.66667e-11
2.98993 	6.66667e-11 	-3.11569e-28 	4.56358e-26 	6.66667e-11 	0 	6.66667e-11
2.99334 	6.66667e-11 	3.54763e-28 	-2.36571e-26 	6.66667e-11 	0 	6.66667e-11
2.99656 	6.66667e-11 	-4.06239e-29 	-8.49135e-27 	6.66667e-11 	0 	6.66667e-11
2.99959 	6.66667e-11 	4.46239e-29 	-2.36666e-26 	6.66667e-11 	0 	6.66667e-11
3.00246 	6.66667e-11 	4.55137e-27 	2.49527e-26 	6.66667e-11 	0 	6.66667e-11
3.00516 	6.66667e-11 	-1.07887e-26 	-2.66274e-26 	6.66667e-11 	0 	6.66667e-11
3.0077 	6.66667e-11 	4.94262e-27 	2.86162e-26 	6.66667e-11 	0 	6.66667e-11
3.01011 	6.66667e-11 	1.35625e-27 	9.32746e-27 	6.66667e-11 	0 	6.66667e-11
3.01237 	6.66667e-11 	-4.64534e-28 	4.32242e-26 	6.66667e-11 	0 	6.66667e-11
3.01451 	6.66667e-11 	-5.16721e-27 	-4.94111e-26 	6.66667e-11 	0 	6.66667e-11
3.01653 	6.66667e-11 	5.8118e-27 	-1.33803e-25 	6.66667e-11 	0 	6.66667e-11
3.01843 	6.66667e-11 	-7.70185e-27 	1.19595e-25 	6.66667e-11 	0 	6.66667e-11
3.02023 	6.66667e-11 	-5.16161e-28 	-1.48778e-26 	6.66667e-11 	0 	6.66667e-11
3.02192 	6.66667e-11 	-7.83306e-27 	1.09019e-25 	6.66667e-11 	0 	6.66667e-11
3.02352 	6.66667e-11 	7.54721e-27 	-4.8407e-26 	6.66667e-11 	0 	6.66667e-11
3.02503 	6.66667e-11 	8.70011e-27 	2.15174e-27 	6.66667e-11 	0 	6.66667e-11
3.02645 	6.66667e-11 	-9.0824e-27 	1.70029e-25 	6.66667e-11 	0 	6.66667e-11
3.02779 	6.66667e-11 	1.12079e-27 	-1.82487e-25 	6.66667e-11 	0 	6.66667e-11
3.02906 	6.66667e-11 	2.0417e-28 	-2.1045e-26 	6.66667e-11 	0 	6.66667e-11
3.03025 	6.66667e-11 	-2.45777e-26 	-1.41361e-31 	6.66667e-11 	0 	6.66667e-11
3.03138 	6.66667e-11 	8.73618e-27 	2.3475e-26 	6.66667e-11 	0 	6.66667e-11
3.03244 	6.66667e-11 	2.97913e-27 	1.4666e-25 	6.66667e-11 	0 	6.66667e-11
3.03344 	6.66667e-11 	-2.70288e-28 	-1.72407e-25 	6.66667e-11 	0 	6.66667e-11
3.03439 	6.66667e-11 	1.26891e-11 	-1.04742e-25 	6.66667e-11 	0 	6.66667e-11
3.03528 	6.66667e-11 	1.28136e-10 	9.29885e-26 	6.66667e-11 	0 	6.66667e-11
