0.00043385 	6.66667e-11 	-1.31352e-10 	1.90408e-26 	6.66667e-11 	0 	6.66667e-11
0.00132759 	6.66667e-11 	-1.60708e-11 	-6.25912e-26 	6.66667e-11 	0 	6.66667e-11
0.00227498 	6.66667e-11 	1.49342e-27 	5.80186e-26 	6.66667e-11 	0 	6.66667e-11
0.00327924 	6.66667e-11 	0 	-1.19632e-26 	6.66667e-11 	0 	6.66667e-11
0.00434378 	6.66667e-11 	-2.35471e-27 	-2.59353e-26 	6.66667e-11 	0 	6.66667e-11
0.00547221 	6.66667e-11 	-1.65977e-26 	-1.20978e-26 	6.66667e-11 	0 	6.66667e-11
0.00666839 	6.66667e-11 	1.14916e-26 	6.17858e-26 	6.66667e-11 	0 	6.66667e-11
0.00793636 	6.66667e-11 	1.0127e-26 	-2.40258e-26 	6.66667e-11 	0 	6.66667e-11
0.00928045 	6.66667e-11 	9.21539e-28 	-3.7152e-27 	6.66667e-11 	0 	6.66667e-11
0.0107052 	6.66667e-11 	1.83689e-27 	3.01435e-32 	6.66667e-11 	0 	6.66667e-11
0.0122155 	6.66667e-11 	2.54447e-27 	1.48981e-32 	6.66667e-11 	0 	6.66667e-11
0.0138164 	6.66667e-11 	1.19427e-26 	9.24669e-33 	6.66667e-11 	0 	6.66667e-11
0.0155135 	6.66667e-11 	-1.40987e-26 	2.61748e-27 	6.66667e-11 	0 	6.66667e-11
0.0173124 	6.66667e-11 	-7.97451e-27 	1.17331e-26 	6.66667e-11 	0 	6.66667e-11
0.0192193 	6.66667e-11 	5.95276e-27 	-1.09073e-26 	6.66667e-11 	0 	6.66667e-11
0.0212406 	6.66667e-11 	1.93167e-27 	-1.87202e-26 	6.66667e-11 	0 	6.66667e-11
0.0233833 	6.66667e-11 	4.28876e-27 	1.5369e-26 	6.66667e-11 	0 	6.66667e-11
0.0256546 	6.66667e-11 	-4.06894e-27 	5.15041e-29 	6.66667e-11 	0 	6.66667e-11
0.0280623 	6.66667e-11 	5.33661e-27 	-8.71913e-28 	6.66667e-11 	0 	6.66667e-11
0.0306144 	6.66667e-11 	1.03568e-27 	-6.50873e-27 	6.66667e-11 	0 	6.66667e-11
0.0333198 	6.66667e-11 	-1.29589e-27 	1.37758e-26 	6.66667e-11 	0 	6.66667e-11
0.0361875 	6.66667e-11 	-1.11557e-26 	-5.67415e-27 	6.66667e-11 	0 	6.66667e-11
0.0392274 	6.66667e-11 	6.58653e-27 	-7.51345e-28 	6.66667e-11 	0 	6.66667e-11
0.0424498 	6.66667e-11 	-3.26347e-27 	-2.76765e-33 	6.66667e-11 	0 	6.66667e-11
0.0458656 	6.66667e-11 	-3.55757e-27 	3.58195e-27 	6.66667e-11 	0 	6.66667e-11
0.0494864 	6.66667e-11 	3.29857e-27 	1.65251e-26 	6.66667e-11 	0 	6.66667e-11
0.0533246 	6.66667e-11 	3.77857e-27 	-2.42792e-26 	6.66667e-11 	0 	6.66667e-11
0.0573931 	6.66667e-11 	6.6478e-29 	-6.55636e-27 	6.66667e-11 	0 	6.66667e-11
0.0617059 	6.66667e-11 	-5.45716e-27 	1.18361e-26 	6.66667e-11 	0 	6.66667e-11
0.0662775 	6.66667e-11 	4.63472e-27 	-2.95349e-28 	6.66667e-11 	0 	6.66667e-11
0.0711236 	6.66667e-11 	7.07414e-28 	-5.05844e-27 	6.66667e-11 	0 	6.66667e-11
0.0762605 	6.66667e-11 	-1.99541e-27 	3.15353e-27 	6.66667e-11 	0 	6.66667e-11
0.0817058 	6.66667e-11 	-2.10893e-28 	-7.65886e-27 	6.66667e-11 	0 	6.66667e-11
0.087478 	6.66667e-11 	2.02154e-27 	7.51027e-27 	6.66667e-11 	0 	6.66667e-11
0.0935966 	6.66667e-11 	-1.5765e-27 	6.8066e-28 	6.66667e-11 	0 	6.66667e-11
0.100083 	6.66667e-11 	-3.03404e-28 	-5.65571e-33 	6.66667e-11 	0 	6.66667e-11
0.106958 	6.66667e-11 	-1.75285e-27 	-4.89612e-32 	6.66667e-11 	0 	6.66667e-11
0.114246 	6.66667e-11 	3.39073e-27 	-2.8842e-28 	6.66667e-11 	0 	6.66667e-11
0.121971 	6.66667e-11 	1.86375e-28 	-2.9803e-27 	6.66667e-11 	0 	6.66667e-11
0.13016 	6.66667e-11 	-2.44803e-28 	2.83632e-27 	6.66667e-11 	0 	6.66667e-11
0.138841 	6.66667e-11 	-2.42841e-28 	5.11572e-28 	6.66667e-11 	0 	6.66667e-11
0.148043 	6.66667e-11 	1.84245e-28 	1.06895e-27 	6.66667e-11 	0 	6.66667e-11
0.157797 	6.66667e-11 	1.57191e-27 	5.98279e-27 	6.66667e-11 	0 	6.66667e-11
0.168136 	6.66667e-11 	-6.0602e-29 	-6.26586e-27 	6.66667e-11 	0 	6.66667e-11
0.179097 	6.66667e-11 	-1.09786e-27 	-6.03201e-28 	6.66667e-11 	0 	6.66667e-11
0.190715 	6.66667e-11 	7.08874e-29 	3.78779e-29 	6.66667e-11 	0 	6.66667e-11
0.20303 	6.66667e-11 	-9.04514e-28 	1.62217e-27 	6.66667e-11 	0 	6.66667e-11
0.216085 	6.66667e-11 	-1.05415e-28 	-1.29611e-27 	6.66667e-11 	0 	6.66667e-11
0.229923 	6.66667e-11 	-1.60045e-27 	-1.26088e-28 	6.66667e-11 	0 	6.66667e-11
0.244592 	6.66667e-11 	1.75319e-27 	-1.73842e-32 	6.66667e-11 	0 	6.66667e-11
0.260142 	6.66667e-11 	2.48837e-28 	-2.46834e-32 	6.66667e-11 	0 	6.66667e-11
0.276625 	6.66667e-11 	7.28271e-28 	-2.74106e-28 	6.66667e-11 	0 	6.66667e-11
0.294097 	6.66667e-11 	-7.09761e-28 	-2.30578e-27 	6.66667e-11 	0 	6.66667e-11
0.312618 	6.66667e-11 	-1.98299e-28 	2.07006e-27 	6.66667e-11 	0 	6.66667e-11
0.332251 	6.66667e-11 	-9.41676e-29 	3.58968e-28 	6.66667e-11 	0 	6.66667e-11
0.353063 	6.66667e-11 	-5.60292e-28 	-1.62599e-33 	6.66667e-11 	0 	6.66667e-11
0.375123 	6.66667e-11 	4.38903e-28 	-5.15353e-31 	6.66667e-11 	0 	6.66667e-11
0.398508 	6.66667e-11 	-9.81266e-28 	-1.9255e-32 	6.66667e-11 	0 	6.66667e-11
0.423296 	6.66667e-11 	3.97122e-28 	3.11819e-28 	6.66667e-11 	0 	6.66667e-11
0.449573 	6.66667e-11 	-8.31402e-28 	3.77653e-27 	6.66667e-11 	0 	6.66667e-11
0.477427 	6.66667e-11 	-6.12722e-29 	-3.3674e-27 	6.66667e-11 	0 	6.66667e-11
0.506952 	6.66667e-11 	3.54619e-28 	-5.24824e-28 	6.66667e-11 	0 	6.66667e-11
0.53825 	6.66667e-11 	-3.22109e-28 	-6.98993e-32 	6.66667e-11 	0 	6.66667e-11
0.571427 	6.66667e-11 	-9.76824e-29 	-3.82816e-28 	6.66667e-11 	0 	6.66667e-11
0.606595 	6.66667e-11 	-3.74471e-28 	-1.26927e-27 	6.66667e-11 	0 	6.66667e-11
0.643874 	6.66667e-11 	4.48468e-29 	1.2134e-27 	6.66667e-11 	0 	6.66667e-11
0.683391 	6.66667e-11 	5.07654e-29 	2.94147e-28 	6.66667e-11 	0 	6.66667e-11
0.725279 	6.66667e-11 	-2.16526e-29 	-3.14271e-31 	6.66667e-11 	0 	6.66667e-11
0.769683 	6.66667e-11 	-3.35065e-28 	-2.70474e-32 	6.66667e-11 	0 	6.66667e-11
0.816751 	6.66667e-11 	-4.55596e-28 	3.43952e-31 	6.66667e-11 	0 	6.66667e-11
0.866645 	6.66667e-11 	4.86818e-28 	-7.56195e-31 	6.66667e-11 	0 	6.66667e-11
0.919534 	6.66667e-11 	2.58199e-28 	4.3318e-31 	6.66667e-11 	0 	6.66667e-11
0.975597 	6.66667e-11 	-1.85846e-28 	-1.213e-31 	6.66667e-11 	0 	6.66667e-11
1.03503 	6.66667e-11 	-8.02896e-30 	-9.36912e-29 	6.66667e-11 	0 	6.66667e-11
1.09802 	6.66667e-11 	7.46595e-29 	-1.87313e-28 	6.66667e-11 	0 	6.66667e-11
1.14865 	6.66667e-11 	-1.54203e-29 	1.43832e-28 	6.66667e-11 	0 	6.66667e-11
1.18301 	6.66667e-11 	-6.10854e-29 	3.49499e-28 	6.66667e-11 	0 	6.66667e-11
1.23559 	6.66667e-11 	-3.64206e-30 	3.0926e-28 	6.66667e-11 	0 	6.66667e-11
1.31062 	6.66667e-11 	1.04384e-28 	-2.128e-28 	6.66667e-11 	0 	6.66667e-11
1.39016 	6.66667e-11 	-1.29909e-28 	-1.88653e-28 	6.66667e-11 	0 	6.66667e-11
1.47447 	6.66667e-11 	3.4092e-29 	-3.86797e-28 	6.66667e-11 	0 	6.66667e-11
1.56124 	6.66667e-11 	1.38642e-28 	4.15674e-28 	6.66667e-11 	0 	6.66667e-11
1.64556 	6.66667e-11 	-3.15228e-28 	1.08315e-29 	6.66667e-11 	0 	6.66667e-11
1.72509 	6.66667e-11 	1.43846e-28 	6.37842e-29 	6.66667e-11 	0 	6.66667e-11
1.80013 	6.66667e-11 	1.72321e-28 	9.24475e-29 	6.66667e-11 	0 	6.66667e-11
1.87091 	6.66667e-11 	-8.51238e-32 	6.16938e-31 	6.66667e-11 	0 	6.66667e-11
1.93769 	6.66667e-11 	0 	-4.48726e-28 	6.66667e-11 	0 	6.66667e-11
2.00069 	6.66667e-11 	1.96826e-29 	-2.62871e-27 	6.66667e-11 	0 	6.66667e-11
2.06012 	6.66667e-11 	2.18756e-28 	2.90861e-27 	6.66667e-11 	0 	6.66667e-11
2.11618 	6.66667e-11 	-2.6228e-28 	4.5176e-28 	6.66667e-11 	0 	6.66667e-11
2.16907 	6.66667e-11 	-4.15424e-29 	-1.30128e-27 	6.66667e-11 	0 	6.66667e-11
2.21896 	6.66667e-11 	2.24678e-28 	1.42659e-27 	6.66667e-11 	0 	6.66667e-11
2.26603 	6.66667e-11 	-1.75052e-28 	1.23063e-29 	6.66667e-11 	0 	6.66667e-11
2.31043 	6.66667e-11 	5.68298e-28 	2.71788e-31 	6.66667e-11 	0 	6.66667e-11
2.35232 	6.66667e-11 	3.75469e-28 	1.30961e-31 	6.66667e-11 	0 	6.66667e-11
2.39184 	6.66667e-11 	-5.76952e-29 	1.04029e-31 	6.66667e-11 	0 	6.66667e-11
2.42912 	6.66667e-11 	-2.32867e-28 	1.05324e-27 	6.66667e-11 	0 	6.66667e-11
2.46429 	6.66667e-11 	-6.74918e-29 	2.28673e-27 	6.66667e-11 	0 	6.66667e-11
2.49746 	6.66667e-11 	-1.41623e-28 	-2.32762e-27 	6.66667e-11 	0 	6.66667e-11
2.52876 	6.66667e-11 	1.47193e-28 	-1.34425e-27 	6.66667e-11 	0 	6.66667e-11
2.55829 	6.66667e-11 	2.58234e-28 	-1.00432e-31 	6.66667e-11 	0 	6.66667e-11
2.57764 	6.66667e-11 	1.0998e-28 	6.69895e-28 	6.66667e-11 	0 	6.66667e-11
2.59116 	6.66667e-11 	-8.30299e-29 	2.50141e-27 	6.66667e-11 	0 	6.66667e-11
2.61242 	6.66667e-11 	-2.99784e-28 	3.33298e-27 	6.66667e-11 	0 	6.66667e-11
2.63721 	6.66667e-11 	-2.56809e-28 	-1.15752e-27 	6.66667e-11 	0 	6.66667e-11
2.66059 	6.66667e-11 	6.42073e-28 	-2.33619e-27 	6.66667e-11 	0 	6.66667e-11
2.68265 	6.66667e-11 	5.33974e-28 	8.29024e-28 	6.66667e-11 	0 	6.66667e-11
2.70346 	6.66667e-11 	-7.73217e-28 	-2.44225e-27 	6.66667e-11 	0 	6.66667e-11
2.7231 	6.66667e-11 	1.35347e-28 	-3.2938e-27 	6.66667e-11 	0 	6.66667e-11
2.74162 	6.66667e-11 	1.05093e-28 	-3.6837e-27 	6.66667e-11 	0 	6.66667e-11
2.75909 	6.66667e-11 	-1.96935e-28 	1.10725e-26 	6.66667e-11 	0 	6.66667e-11
2.77557 	6.66667e-11 	8.49803e-28 	-2.31671e-27 	6.66667e-11 	0 	6.66667e-11
2.79112 	6.66667e-11 	-2.95764e-28 	2.49616e-27 	6.66667e-11 	0 	6.66667e-11
2.80579 	6.66667e-11 	2.47649e-28 	-6.78224e-27 	6.66667e-11 	0 	6.66667e-11
2.81963 	6.66667e-11 	-1.49511e-28 	-1.00657e-26 	6.66667e-11 	0 	6.66667e-11
2.83268 	6.66667e-11 	-3.85963e-28 	9.56049e-27 	6.66667e-11 	0 	6.66667e-11
2.845 	6.66667e-11 	5.47421e-28 	3.0978e-27 	6.66667e-11 	0 	6.66667e-11
2.85662 	6.66667e-11 	1.47611e-28 	7.55391e-28 	6.66667e-11 	0 	6.66667e-11
2.86758 	6.66667e-11 	9.59361e-28 	-9.48025e-30 	6.66667e-11 	0 	6.66667e-11
2.87792 	6.66667e-11 	-1.06304e-27 	6.25538e-27 	6.66667e-11 	0 	6.66667e-11
2.88767 	6.66667e-11 	-9.74362e-28 	-7.94498e-27 	6.66667e-11 	0 	6.66667e-11
2.89687 	6.66667e-11 	2.31776e-27 	-1.00228e-26 	6.66667e-11 	0 	6.66667e-11
2.90555 	6.66667e-11 	-1.35514e-27 	8.16369e-27 	6.66667e-11 	0 	6.66667e-11
2.91374 	6.66667e-11 	9.44359e-28 	1.89649e-27 	6.66667e-11 	0 	6.66667e-11
2.92147 	6.66667e-11 	-1.55995e-27 	-4.35765e-32 	6.66667e-11 	0 	6.66667e-11
2.92876 	6.66667e-11 	1.93342e-28 	3.55858e-36 	6.66667e-11 	0 	6.66667e-11
2.93563 	6.66667e-11 	1.81207e-27 	6.29292e-33 	6.66667e-11 	0 	6.66667e-11
2.94212 	6.66667e-11 	-1.34525e-27 	1.22545e-31 	6.66667e-11 	0 	6.66667e-11
2.94824 	6.66667e-11 	5.87301e-27 	5.18792e-32 	6.66667e-11 	0 	6.66667e-11
2.95401 	6.66667e-11 	-6.57e-27 	1.34199e-27 	6.66667e-11 	0 	6.66667e-11
2.95945 	6.66667e-11 	2.93471e-27 	1.43193e-26 	6.66667e-11 	0 	6.66667e-11
2.96459 	6.66667e-11 	8.73532e-28 	-1.3903e-26 	6.66667e-11 	0 	6.66667e-11
2.96944 	6.66667e-11 	-5.78242e-27 	-1.22661e-29 	6.66667e-11 	0 	6.66667e-11
2.97401 	6.66667e-11 	-4.61187e-28 	-1.58975e-27 	6.66667e-11 	0 	6.66667e-11
2.97832 	6.66667e-11 	3.36886e-27 	-1.5461e-27 	6.66667e-11 	0 	6.66667e-11
2.98239 	6.66667e-11 	-2.72828e-27 	-4.91031e-33 	6.66667e-11 	0 	6.66667e-11
2.98623 	6.66667e-11 	2.56661e-28 	3.74376e-27 	6.66667e-11 	0 	6.66667e-11
2.98985 	6.66667e-11 	-4.05965e-27 	2.34228e-26 	6.66667e-11 	0 	6.66667e-11
2.99326 	6.66667e-11 	-4.54562e-27 	-2.32396e-26 	6.66667e-11 	0 	6.66667e-11
2.99649 	6.66667e-11 	4.51342e-27 	-2.66847e-28 	6.66667e-11 	0 	6.66667e-11
2.99953 	6.66667e-11 	6.89039e-28 	1.3247e-29 	6.66667e-11 	0 	6.66667e-11
3.00239 	6.66667e-11 	3.88948e-28 	-4.29439e-27 	6.66667e-11 	0 	6.66667e-11
3.0051 	6.66667e-11 	4.50161e-27 	-2.56624e-27 	6.66667e-11 	0 	6.66667e-11
3.00765 	6.66667e-11 	-5.27457e-27 	-1.04767e-28 	6.66667e-11 	0 	6.66667e-11
3.01006 	6.66667e-11 	-5.22548e-28 	-5.71902e-27 	6.66667e-11 	0 	6.66667e-11
3.01233 	6.66667e-11 	-5.93946e-27 	-3.73848e-26 	6.66667e-11 	0 	6.66667e-11
3.01447 	6.66667e-11 	3.96608e-28 	3.99131e-26 	6.66667e-11 	0 	6.66667e-11
3.01649 	6.66667e-11 	1.07416e-27 	6.57522e-27 	6.66667e-11 	0 	6.66667e-11
3.0184 	6.66667e-11 	8.17295e-27 	9.28135e-27 	6.66667e-11 	0 	6.66667e-11
3.0202 	6.66667e-11 	1.38582e-27 	8.71432e-26 	6.66667e-11 	0 	6.66667e-11
3.0219 	6.66667e-11 	-1.35381e-27 	-9.56552e-26 	6.66667e-11 	0 	6.66667e-11
3.0235 	6.66667e-11 	-2.1925e-27 	-8.23974e-27 	6.66667e-11 	0 	6.66667e-11
3.02501 	6.66667e-11 	8.31195e-27 	-5.00734e-27 	6.66667e-11 	0 	6.66667e-11
3.02643 	6.66667e-11 	7.89772e-29 	-5.49899e-26 	6.66667e-11 	0 	6.66667e-11
3.02778 	6.66667e-11 	-1.06193e-26 	6.98758e-26 	6.66667e-11 	0 	6.66667e-11
3.02905 	6.66667e-11 	-1.02086e-27 	7.68531e-26 	6.66667e-11 	0 	6.66667e-11
3.03024 	6.66667e-11 	1.00071e-26 	-6.75802e-26 	6.66667e-11 	0 	6.66667e-11
3.03137 	6.66667e-11 	5.37872e-28 	-2.30725e-26 	6.66667e-11 	0 	6.66667e-11
3.03244 	6.66667e-11 	-1.14455e-26 	-3.83253e-27 	6.66667e-11 	0 	6.66667e-11
3.03344 	6.66667e-11 	1.369e-26 	-2.56259e-27 	6.66667e-11 	0 	6.66667e-11
3.03439 	6.66667e-11 	1.26771e-11 	-8.26534e-26 	6.66667e-11 	0 	6.66667e-11
3.03528 	6.66667e-11 	1.27924e-10 	1.00189e-25 	6.66667e-11 	0 	6.66667e-11
