/*--------------------------------*- C++ -*----------------------------------*\
| =========                 |                                                 |
| \\      /  F ield         | OpenFOAM: The Open Source CFD Toolbox           |
|  \\    /   O peration     | Version:  2.4.0                                 |
|   \\  /    A nd           | Web:      www.OpenFOAM.org                      |
|    \\/     M anipulation  |                                                 |
\*---------------------------------------------------------------------------*/
FoamFile
{
    version     2.0;
    format      ascii;
    class       surfaceScalarField;
    location    "270";
    object      phi;
}
// * * * * * * * * * * * * * * * * * * * * * * * * * * * * * * * * * * * * * //

dimensions      [0 3 -1 0 0 0 0];

internalField   nonuniform List<scalar> 
156040
(
-1.1006993e-06
-2.78369e-07
-8.6296309e-07
-2.377362e-07
-6.8284208e-07
-1.8012096e-07
-5.388632e-07
-1.4397885e-07
-4.4636404e-07
-9.2499136e-08
-3.9010901e-07
-5.6254992e-08
-3.5184822e-07
-3.8260789e-08
-2.9151816e-07
-6.0330038e-08
-1.985588e-07
-9.2959347e-08
-1.2899185e-07
-6.9566966e-08
-5.51139e-08
-7.3877957e-08
-1.1632259e-07
6.1208757e-08
-1.6853597e-07
5.2213296e-08
-1.0501391e-07
-6.3521998e-08
-6.0334231e-07
4.9832836e-07
-3.7227312e-07
-2.3106916e-07
2.5096024e-07
-6.2323337e-07
-6.6899133e-08
3.1785938e-07
-1.0292979e-07
3.6030658e-08
-4.4876821e-08
-5.805296e-08
-2.6541109e-08
-1.8335709e-08
-1.5627698e-08
-1.0913407e-08
-5.7373102e-09
-9.8903854e-09
-6.7656596e-09
1.0283453e-09
-1.5571933e-09
-5.2084637e-09
1.4193069e-08
-1.5750239e-08
1.6873348e-09
1.2505705e-08
2.5119375e-08
-2.3432028e-08
1.2925666e-08
1.21937e-08
2.2096632e-08
-9.1709603e-09
1.4195426e-08
7.901203e-09
2.1328214e-08
-7.1327875e-09
1.8177616e-08
3.1505968e-09
1.1591732e-08
6.5858809e-09
1.1330475e-08
2.6125163e-10
1.0020433e-08
1.3100366e-09
-1.8412995e-08
2.8433421e-08
-3.1297376e-08
1.2884376e-08
5.0634776e-08
-8.1932202e-08
4.3715931e-07
-3.8652449e-07
-5.5163019e-07
9.8879097e-07
7.102796e-08
-6.2265848e-07
-2.7262839e-08
9.8290813e-08
-5.7306203e-08
3.0043364e-08
-7.4292703e-08
1.698652e-08
-2.7750336e-08
-4.6542369e-08
-4.5404227e-08
1.7653906e-08
-5.9209073e-08
1.3804841e-08
-5.3630276e-08
-5.5787904e-09
-5.0274683e-08
-3.3555911e-09
-4.6333941e-08
-3.9407351e-09
-3.9072137e-08
-7.2617982e-09
-3.3180679e-08
-5.8914495e-09
-2.6136625e-08
-7.0440402e-09
-1.9615325e-08
-6.5212915e-09
-1.2167757e-08
-7.4475573e-09
-4.2038263e-09
-7.9639222e-09
2.1337283e-09
-6.3375438e-09
6.3312599e-09
-4.1975252e-09
6.9987871e-09
-6.6752273e-10
4.4960974e-09
2.5026984e-09
-7.291692e-09
1.1787794e-08
-3.4659845e-08
2.7368168e-08
-6.4938502e-08
3.0278668e-08
-9.3060174e-08
2.8121682e-08
-1.201105e-07
2.7050335e-08
-1.4614165e-07
2.6031157e-08
-1.7066638e-07
2.4524736e-08
-1.9401588e-07
2.3349501e-08
-2.1595224e-07
2.1936358e-08
-2.3610917e-07
2.0156953e-08
-2.5610429e-07
1.9995136e-08
-2.7481525e-07
1.8710966e-08
-2.9233343e-07
1.7518187e-08
-3.0781798e-07
1.5484572e-08
-3.2244034e-07
1.4622366e-08
-3.3544782e-07
1.3007489e-08
-3.4725668e-07
1.1808863e-08
-3.5786134e-07
1.060468e-08
-3.6805618e-07
1.0194843e-08
-3.7797862e-07
9.922451e-09
-3.8723972e-07
9.2610902e-09
-3.9574412e-07
8.5044201e-09
-4.0272992e-07
6.9857985e-09
-4.0912881e-07
6.39889e-09
-4.1447212e-07
5.3433078e-09
-4.1983677e-07
5.3646527e-09
-4.2309832e-07
3.2615428e-09
-4.2508526e-07
1.9869412e-09
-4.2529161e-07
2.0633641e-10
-4.2471414e-07
-5.7747205e-10
-4.2174589e-07
-2.9682554e-09
-4.19386e-07
-2.359885e-09
-4.1551768e-07
-3.868323e-09
-4.1471475e-07
-8.0292582e-10
-4.1382344e-07
-8.9130772e-10
-4.1325228e-07
-5.7115855e-10
-4.1182426e-07
-1.4280362e-09
-4.1204633e-07
2.2206862e-10
-4.1001568e-07
-2.0306639e-09
-4.0577313e-07
-4.242554e-09
-3.9940408e-07
-6.3690656e-09
-3.9327393e-07
-6.1301683e-09
-3.868092e-07
-6.4647467e-09
-3.7884979e-07
-7.9594136e-09
-3.7085111e-07
-7.9986841e-09
-3.6084654e-07
-1.0004573e-08
-3.5267234e-07
-8.1742101e-09
-3.4058623e-07
-1.2086111e-08
-3.285541e-07
-1.2032139e-08
-3.1659952e-07
-1.1954593e-08
-3.1237055e-07
-4.2289738e-09
-3.0517373e-07
-7.1968277e-09
-3.0722619e-07
2.0524559e-09
-3.0825654e-07
1.0303374e-09
-3.098299e-07
1.5733524e-09
-3.1071737e-07
8.8746662e-10
-3.089821e-07
-1.7352847e-09
-3.0492483e-07
-4.0572634e-09
-2.9863273e-07
-6.2921007e-09
-2.9410276e-07
-4.5299792e-09
-2.8919228e-07
-4.9104771e-09
-2.8493095e-07
-4.2613244e-09
-2.8096706e-07
-3.9638974e-09
-2.7842391e-07
-2.5431437e-09
-2.7582334e-07
-2.6005766e-09
-2.739762e-07
-1.8471272e-09
-2.7196444e-07
-2.0117566e-09
-2.7140818e-07
-5.5625478e-10
-2.6937374e-07
-2.0344449e-09
-2.6830848e-07
-1.0652513e-09
-2.6603805e-07
-2.2704319e-09
-2.6585817e-07
-1.7988364e-10
-2.6413353e-07
-1.7246407e-09
-2.6438602e-07
2.524899e-10
-2.6257842e-07
-1.8076021e-09
-2.6210786e-07
-4.7055424e-10
-2.5824719e-07
-3.8606815e-09
-2.5444163e-07
-3.8055601e-09
-2.4832451e-07
-6.1171275e-09
-2.4391269e-07
-4.4118287e-09
-2.3755573e-07
-6.3569717e-09
-2.3156389e-07
-5.9918393e-09
-2.2758126e-07
-3.9826452e-09
-2.2560271e-07
-1.978555e-09
-2.2457511e-07
-1.0276164e-09
-2.2206114e-07
-2.5139716e-09
-2.2216143e-07
1.0029004e-10
-2.2496023e-07
2.7987956e-09
-2.2936926e-07
4.4090226e-09
-2.3328058e-07
3.9113212e-09
-2.3496746e-07
1.6868784e-09
-2.3900103e-07
4.0335593e-09
-2.4003594e-07
1.0349109e-09
-2.416951e-07
1.6591553e-09
-2.3846125e-07
-3.2338595e-09
-2.3798474e-07
-4.7651257e-10
-2.3347591e-07
-4.5088368e-09
-2.3017726e-07
-3.2986591e-09
-2.206727e-07
-9.5045597e-09
-2.1812415e-07
-2.5485614e-09
-2.2169287e-07
3.5686904e-09
-2.289251e-07
7.2322648e-09
-2.3094043e-07
2.0153238e-09
-2.3357143e-07
2.6310034e-09
-2.3764123e-07
4.0698155e-09
-2.4046476e-07
2.8235337e-09
-2.4149806e-07
1.0333146e-09
-2.4238265e-07
8.8460441e-10
-2.3714158e-07
-5.2410592e-09
-2.2131266e-07
-1.5828898e-08
-1.9843827e-07
-2.287438e-08
-1.7918875e-07
-1.9249483e-08
-1.672974e-07
-1.1891325e-08
-1.5484339e-07
-1.2453981e-08
-1.4890268e-07
-5.9406903e-09
-1.3735743e-07
-1.1545224e-08
-1.2645543e-07
-1.0901995e-08
-1.0930363e-07
-1.715177e-08
-1.007952e-07
-8.5084321e-09
-9.3075579e-08
-7.7196039e-09
-9.0002874e-08
-3.0727135e-09
-8.8935735e-08
-1.0671319e-09
-8.0881271e-08
-8.0544775e-09
-6.9709992e-08
-1.1171281e-08
-5.2250732e-08
-1.7459281e-08
-4.8659946e-08
-3.5907901e-09
-4.2390285e-08
-6.269685e-09
-5.1858535e-08
9.4682345e-09
-6.3899397e-08
1.2040835e-08
-7.7490003e-08
1.3590606e-08
-9.0376046e-08
1.2886034e-08
-7.9265815e-08
-1.1110231e-08
-7.1198152e-08
-8.0676734e-09
-5.732927e-08
-1.3868884e-08
-7.6503901e-08
1.9174619e-08
-9.5942584e-08
1.9438674e-08
-1.1069791e-07
1.4755304e-08
-5.8111583e-08
-5.2586307e-08
1.9260741e-08
-7.7372321e-08
1.6543754e-07
-1.4617677e-07
2.680468e-07
-1.0260925e-07
3.6617469e-07
-9.8127854e-08
3.1859321e-07
4.7581465e-08
2.5003991e-07
6.8553311e-08
1.5067674e-07
9.9363146e-08
1.5965799e-07
-8.9812518e-09
1.3507815e-07
2.4579792e-08
1.1038276e-07
2.4695376e-08
4.0372019e-08
7.0010677e-08
1.066746e-08
2.9704558e-08
-3.7461164e-08
4.8128582e-08
-5.6581044e-08
1.9119856e-08
-6.0696916e-08
4.1158156e-09
-6.2899977e-08
2.2030541e-09
-8.220554e-08
1.9305519e-08
-5.1232057e-08
-3.0973504e-08
1.2966879e-07
-1.8090091e-07
4.1638275e-07
-2.8671394e-07
3.9129536e-07
2.5087347e-08
3.7572687e-09
3.8753808e-07
-5.4387254e-07
5.4762973e-07
-9.0134777e-07
3.5747553e-07
-4.0534677e-07
-4.9600138e-07
1.9045828e-06
-2.3099294e-06
4.9456046e-07
1.4100221e-06
2.9513318e-06
-2.4567712e-06
1.105612e-06
1.8457194e-06
3.4617693e-06
-2.3561569e-06
2.1305208e-06
1.3312481e-06
2.2762211e-06
-1.4569945e-07
1.5850514e-06
6.9116909e-07
9.477451e-08
1.4902768e-06
4.8335235e-08
4.643901e-08
-5.2050194e-07
5.6883706e-07
-1.3561473e-06
8.3564491e-07
-9.3381427e-07
-4.2233313e-07
-1.8536627e-06
9.198477e-07
-1.9075281e-05
1.7221621e-05
-1.3321756e-05
-5.7535256e-06
-1.6230865e-05
2.9091665e-06
-2.9701617e-05
1.3470679e-05
1.8788953e-05
-4.8490925e-05
9.4050786e-06
9.3842271e-06
1.0628307e-05
-1.2231794e-06
6.3922013e-06
4.2360641e-06
4.2624014e-06
2.1298047e-06
-3.6014687e-07
4.622545e-06
-2.5506683e-06
2.1905217e-06
-1.3124482e-06
-1.2382201e-06
-1.0786682e-07
-1.2045813e-06
7.7307929e-07
-8.8094609e-07
2.6521068e-06
-1.8790274e-06
3.3055388e-06
-6.5343233e-07
6.4938291e-06
-3.1882905e-06
1.5797491e-05
-9.3036551e-06
1.9043093e-05
-3.2456103e-06
2.0647738e-05
-1.6046772e-06
6.0697733e-06
1.4577997e-05
-3.2166042e-06
9.2863783e-06
-6.9205158e-06
3.7039125e-06
-6.5232671e-06
-3.9724833e-07
-6.0882519e-06
-4.3501465e-07
-5.5535178e-06
-5.3473398e-07
-4.6592487e-06
-8.9426895e-07
-3.6713491e-06
-9.8789956e-07
-2.7560657e-06
-9.1528325e-07
-2.1210177e-06
-6.3504809e-07
-1.6848282e-06
-4.3618947e-07
-3.0575977e-07
-1.8421993e-06
-7.6995586e-07
-1.4379251e-06
-6.4201039e-07
-1.0849742e-06
-5.3307175e-07
-8.5714888e-07
-3.7180411e-07
-7.1878676e-07
-2.3086122e-07
-6.888186e-07
-8.6223097e-08
-6.7463716e-07
-5.2442234e-08
-6.2351339e-07
-1.1145377e-07
-4.1401076e-07
-3.0246196e-07
-2.6809331e-07
-2.1548445e-07
-1.760452e-07
-1.6592608e-07
-3.0665732e-07
1.9182095e-07
-4.4008063e-07
1.8563655e-07
-3.0397918e-07
-1.996234e-07
-1.0589994e-06
1.2533485e-06
-7.9321076e-07
-4.9685767e-07
1.9472978e-07
-1.6111739e-06
-2.1032396e-07
7.2291312e-07
-2.0632971e-07
3.2036416e-08
-9.2550686e-08
-1.7183198e-07
-5.2286089e-08
-5.86003e-08
-2.3717451e-08
-3.9482037e-08
3.4850425e-09
-3.7092869e-08
1.2113895e-08
-7.6005041e-09
2.7530348e-08
-2.062491e-08
6.0054628e-08
-4.8274505e-08
4.3513972e-08
2.9046357e-08
8.2755258e-08
-6.2673293e-08
6.3837351e-08
3.1111597e-08
7.8173508e-08
-2.3507094e-08
6.2439984e-08
2.3634716e-08
6.7253255e-08
-1.1946051e-08
5.6817595e-08
1.3586263e-08
4.2128658e-08
2.127482e-08
3.0201652e-08
1.218826e-08
1.4155974e-08
1.7355714e-08
-2.2204324e-08
6.4793719e-08
-3.3268719e-08
2.3948771e-08
2.4665908e-08
-1.3986682e-07
7.6215018e-07
-1.1240088e-06
-7.4559821e-07
2.496541e-06
1.0940838e-07
-1.4776651e-06
-9.7876876e-08
3.0557608e-07
-1.2592881e-07
5.8095298e-08
-1.5730627e-07
4.836399e-08
-1.0387857e-07
-9.9970065e-08
-1.3209051e-07
4.5865852e-08
-1.478727e-07
2.9587036e-08
-1.3869382e-07
-1.4757673e-08
-1.3142369e-07
-1.0625716e-08
-1.2272789e-07
-1.2636526e-08
-1.0871022e-07
-2.1279459e-08
-9.3895399e-08
-2.0706262e-08
-7.6010598e-08
-2.4928835e-08
-5.7563064e-08
-2.4968816e-08
-3.5733227e-08
-2.9277384e-08
-1.2839775e-08
-3.0857363e-08
5.3878896e-09
-2.45652e-08
2.0141407e-08
-1.895103e-08
2.5463274e-08
-5.9893802e-09
2.0606658e-08
7.359326e-09
-1.1413255e-08
4.3807713e-08
-9.2185418e-08
1.0814034e-07
-1.8195419e-07
1.2004744e-07
-2.6479559e-07
1.1096309e-07
-3.4638648e-07
1.0864124e-07
-4.2492038e-07
1.0456507e-07
-5.0003326e-07
9.9637625e-08
-5.7169332e-07
9.5009564e-08
-6.401617e-07
9.0404741e-08
-7.0442405e-07
8.4419315e-08
-7.6676863e-07
8.233972e-08
-8.2531453e-07
7.7256877e-08
-8.8068151e-07
7.2885172e-08
-9.316631e-07
6.6466176e-08
-9.8009843e-07
6.3057697e-08
-1.023946e-06
5.6855113e-08
-1.0638323e-06
5.1695129e-08
-1.1005131e-06
4.7285457e-08
-1.1349501e-06
4.4631883e-08
-1.166587e-06
4.1559333e-08
-1.1958021e-06
3.8476208e-08
-1.2229214e-06
3.562377e-08
-1.2462021e-06
3.0266451e-08
-1.2672905e-06
2.7487262e-08
-1.2851589e-06
2.3211769e-08
-1.3013353e-06
2.1541048e-08
-1.3128606e-06
1.4786854e-08
-1.3213003e-06
1.0426592e-08
-1.3254252e-06
4.3312676e-09
-1.3268914e-06
8.8867855e-10
-1.3233159e-06
-6.5437589e-09
-1.3195369e-06
-6.1388617e-09
-1.3122857e-06
-1.111949e-08
-1.3102058e-06
-2.8828267e-09
-1.3062348e-06
-4.8623302e-09
-1.2994705e-06
-7.3354339e-09
-1.2896517e-06
-1.1246888e-08
-1.2811139e-06
-8.3157349e-09
-1.2692937e-06
-1.3850891e-08
-1.25466e-06
-1.8876222e-08
-1.2362355e-06
-2.4793597e-08
-1.217838e-06
-2.4527705e-08
-1.1986922e-06
-2.5610594e-08
-1.1773377e-06
-2.9313876e-08
-1.1565702e-06
-2.8766141e-08
-1.1331439e-06
-3.3430953e-08
-1.1130973e-06
-2.8220775e-08
-1.0871698e-06
-3.8013604e-08
-1.0628241e-06
-3.6377812e-08
-1.0444415e-06
-3.0337235e-08
-1.0391776e-06
-9.4929078e-09
-1.0182446e-06
-2.812981e-08
-1.0085324e-06
-7.659728e-09
-1.0007215e-06
-6.7805425e-09
-9.9356192e-07
-5.5862647e-09
-9.8458493e-07
-8.0895268e-09
-9.7146349e-07
-1.4856735e-08
-9.5503542e-07
-2.0485322e-08
-9.3544295e-07
-2.5884572e-08
-9.1876392e-07
-2.1209011e-08
-9.0162301e-07
-2.205139e-08
-8.8596538e-07
-1.991895e-08
-8.7113955e-07
-1.8789731e-08
-8.5890127e-07
-1.478142e-08
-8.4692263e-07
-1.4579215e-08
-8.3665642e-07
-1.2113333e-08
-8.2647548e-07
-1.2192698e-08
-8.1890859e-07
-8.1231358e-09
-8.093101e-07
-1.1632937e-08
-8.0184188e-07
-8.5334684e-09
-7.9282042e-07
-1.129189e-08
-7.8745473e-07
-5.5455747e-09
-7.7985644e-07
-9.3229303e-09
-7.7568369e-07
-3.9202562e-09
-7.6829484e-07
-9.1964487e-09
-7.6297827e-07
-5.7871294e-09
-7.5217794e-07
-1.4661017e-08
-7.4165959e-07
-1.4323902e-08
-7.2735406e-07
-2.042267e-08
-7.1562441e-07
-1.6141481e-08
-7.0097005e-07
-2.1011336e-08
-6.872861e-07
-1.9675793e-08
-6.767282e-07
-1.4540563e-08
-6.6931628e-07
-9.3904776e-09
-6.6381878e-07
-6.5251316e-09
-6.5653795e-07
-9.7947975e-09
-6.5384647e-07
-2.5911965e-09
-6.5543085e-07
4.383174e-09
-6.5948124e-07
8.4594154e-09
-6.6323576e-07
7.665837e-09
-6.637979e-07
2.2490179e-09
-6.6801939e-07
8.2550472e-09
-6.6719526e-07
2.107745e-10
-6.6783781e-07
2.3017089e-09
-6.6073484e-07
-1.0336833e-08
-6.5792029e-07
-3.2910655e-09
-6.4828291e-07
-1.4146214e-08
-6.408238e-07
-1.0757776e-08
-6.2431045e-07
-2.6017915e-08
-6.1871461e-07
-8.1444052e-09
-6.2128176e-07
6.135791e-09
-6.2846314e-07
1.4413693e-08
-6.2763671e-07
1.1888848e-09
-6.2924805e-07
4.2423494e-09
-6.3394423e-07
8.7659974e-09
-6.3664312e-07
5.5224385e-09
-6.3597945e-07
3.6965524e-10
-6.3345643e-07
-1.6384026e-09
-6.1932349e-07
-1.9373995e-08
-5.8605985e-07
-4.909252e-08
-5.4037488e-07
-6.8559327e-08
-5.0351358e-07
-5.611075e-08
-4.8267128e-07
-3.2733607e-08
-4.6157523e-07
-3.3549998e-08
-4.5005942e-07
-1.7456479e-08
-4.2781478e-07
-3.378983e-08
-4.0638353e-07
-3.2333245e-08
-3.7629853e-07
-4.7236734e-08
-3.6023183e-07
-2.4575137e-08
-3.4265486e-07
-2.5296555e-08
-3.29744e-07
-1.5983586e-08
-3.2156951e-07
-9.2416199e-09
-3.049427e-07
-2.4681307e-08
-2.84969e-07
-3.1144982e-08
-2.5228942e-07
-5.0138893e-08
-2.3955727e-07
-1.6322943e-08
-2.2364194e-07
-2.2185044e-08
-2.3475653e-07
2.0582795e-08
-2.4966423e-07
2.6948502e-08
-2.6605897e-07
2.9985347e-08
-2.8167724e-07
2.8504292e-08
-2.6029288e-07
-3.2494599e-08
-2.4568761e-07
-2.2672964e-08
-2.2147605e-07
-3.8080445e-08
-2.4992957e-07
4.7628124e-08
-2.7605904e-07
4.5568143e-08
-2.9422853e-07
3.2924762e-08
-2.0355961e-07
-1.432552e-07
-7.3243439e-08
-2.0768849e-07
1.6591743e-07
-3.853376e-07
3.3006641e-07
-2.6675823e-07
4.8443079e-07
-2.524922e-07
3.9989207e-07
1.3212018e-07
2.825836e-07
1.8586179e-07
1.2360879e-07
2.5833793e-07
1.4347247e-07
-2.8844934e-08
1.0882943e-07
5.9222777e-08
6.9194831e-08
6.4329946e-08
-5.2483356e-08
1.9168879e-07
-1.1067818e-07
8.7899377e-08
-1.901266e-07
1.2757695e-07
-2.1664399e-07
4.5637223e-08
-2.2674713e-07
1.4218886e-08
-2.2866042e-07
4.1163329e-09
-2.3827854e-07
2.8923583e-08
-1.7522041e-07
-9.4031658e-08
7.519225e-08
-4.3131366e-07
4.5756783e-07
-6.6908951e-07
4.0954797e-07
7.3107155e-08
-1.3094663e-07
9.2803266e-07
-9.3952298e-07
1.356206e-06
-1.3189003e-06
7.3685318e-07
-3.3978159e-07
-1.4751205e-06
3.221634e-06
-5.8713447e-06
7.1069179e-07
3.9209639e-06
4.3200014e-06
-6.0660806e-06
1.2403194e-06
4.9254011e-06
5.1374366e-06
-6.2532737e-06
2.9904203e-06
3.478264e-06
3.408852e-06
-5.6413033e-07
2.4004758e-06
1.6995448e-06
2.9439851e-07
3.5963539e-06
4.6938315e-07
-1.2854596e-07
-4.2991851e-07
1.4681386e-06
-1.9296416e-06
2.3353675e-06
-1.2878663e-06
-1.0641086e-06
-2.5460383e-06
2.1780187e-06
-3.0248724e-05
4.4924309e-05
-2.0617347e-05
-1.5384904e-05
-2.4944456e-05
7.2363354e-06
-4.677448e-05
3.5300625e-05
3.1011238e-05
-0.00012627702
1.527051e-05
2.5125331e-05
1.7477223e-05
-3.429839e-06
1.0234819e-05
1.1478425e-05
7.1957985e-06
5.1688303e-06
4.7889804e-08
1.177045e-05
-3.0473364e-06
5.2857482e-06
-9.1612713e-07
-3.3694293e-06
8.4157266e-07
-2.9622811e-06
1.9712954e-06
-2.0106688e-06
4.4873144e-06
-4.3950463e-06
5.1496925e-06
-1.3158108e-06
1.0503995e-05
-8.5425937e-06
2.496633e-05
-2.3765983e-05
2.9895475e-05
-8.1747647e-06
3.3603414e-05
-5.3126503e-06
1.1913262e-05
3.6268183e-05
-1.5883484e-06
2.2787989e-05
-8.1807441e-06
1.0296309e-05
-8.784268e-06
2.0627608e-07
-8.7082827e-06
-5.1099928e-07
-8.127187e-06
-1.1158295e-06
-7.1155707e-06
-1.9058851e-06
-5.8531882e-06
-2.2502819e-06
-4.6166031e-06
-2.1518683e-06
-3.6433623e-06
-1.6082889e-06
-2.9074426e-06
-1.1721091e-06
-8.7941619e-07
-2.0588977e-06
-1.3556572e-06
-1.5962218e-06
-1.1046863e-06
-1.134286e-06
-9.9500752e-07
-8.9529827e-07
-6.1079183e-07
-7.6291368e-07
-3.6324579e-07
-8.1425111e-07
-3.4885621e-08
-8.6679269e-07
9.9340204e-11
-8.7621442e-07
-1.0203202e-07
-5.7376639e-07
-6.0490997e-07
-3.7314849e-07
-4.1610238e-07
-3.099394e-07
-2.2913517e-07
-4.9396218e-07
3.7584381e-07
-7.0699645e-07
3.9867072e-07
-5.1642854e-07
-3.9019124e-07
-1.2572663e-06
1.9941862e-06
-1.1119568e-06
-6.4216716e-07
-7.4799499e-08
-2.6483312e-06
-3.6580428e-07
1.0139179e-06
-2.7766587e-07
-5.6101987e-08
-1.2740962e-07
-3.2208823e-07
-6.9224139e-08
-1.1678578e-07
-2.3500276e-08
-8.5205897e-08
2.0988641e-08
-8.1581786e-08
4.4194136e-08
-3.0806008e-08
7.0223851e-08
-4.6654624e-08
1.1476037e-07
-9.2810997e-08
1.0201176e-07
4.1794922e-08
1.4608779e-07
-1.0674931e-07
1.2665741e-07
5.054197e-08
1.4123238e-07
-3.8082057e-08
1.2013272e-07
4.4734376e-08
1.1604074e-07
-7.854077e-09
9.7316664e-08
3.2310331e-08
7.5764759e-08
4.2826718e-08
4.7270838e-08
4.0682172e-08
1.0895473e-08
5.3731069e-08
-1.6431122e-08
9.2120302e-08
-1.5938483e-08
2.3456121e-08
-5.118633e-08
-1.0461905e-07
8.6005432e-07
-2.0352494e-06
-6.4691864e-07
4.0035139e-06
1.0610536e-07
-2.2306896e-06
-1.7923611e-07
5.9091757e-07
-1.8402744e-07
6.2886629e-08
-2.2423113e-07
8.8567707e-08
-1.9569899e-07
-1.2850221e-07
-2.2579333e-07
7.5960208e-08
-2.3470393e-07
3.8497636e-08
-2.2485578e-07
-2.4605815e-08
-2.1470001e-07
-2.0781477e-08
-2.0237545e-07
-2.4961084e-08
-1.8428622e-07
-3.9368681e-08
-1.6131705e-07
-4.3675413e-08
-1.3341769e-07
-5.2828178e-08
-1.0304047e-07
-5.5346024e-08
-6.6573578e-08
-6.5744264e-08
-2.8626873e-08
-6.8804058e-08
1.5764048e-09
-5.4768462e-08
2.7832869e-08
-4.5207488e-08
3.8758494e-08
-1.6915002e-08
3.1634581e-08
1.4483249e-08
-2.1489897e-08
9.6932197e-08
-1.5881472e-07
2.4546519e-07
-3.1166787e-07
2.7290061e-07
-4.5236697e-07
2.5166221e-07
-5.9211972e-07
2.4839399e-07
-7.2655634e-07
2.390017e-07
-8.5581619e-07
2.2889749e-07
-9.7915386e-07
2.1834724e-07
-1.0976924e-06
2.0894327e-07
-1.2098352e-06
1.9656212e-07
-1.3176192e-06
1.9012377e-07
-1.4189477e-06
1.7858537e-07
-1.5150916e-06
1.6902912e-07
-1.6049567e-06
1.5633127e-07
-1.6904262e-06
1.4852728e-07
-1.7682654e-06
1.3469424e-07
-1.8390666e-06
1.224964e-07
-1.904583e-06
1.128019e-07
-1.9654533e-06
1.0550217e-07
-2.0201245e-06
9.6230536e-08
-2.0703721e-06
8.8723778e-08
-2.1172041e-06
8.245583e-08
-2.1580628e-06
7.1125176e-08
-2.1948687e-06
6.429315e-08
-2.2261618e-06
5.4504796e-08
-2.253326e-06
4.870525e-08
-2.2737884e-06
3.5249302e-08
-2.2895171e-06
2.6155285e-08
-2.2986781e-06
1.3492263e-08
-2.303099e-06
5.3095567e-09
-2.3004781e-06
-9.1646381e-09
-2.2960659e-06
-1.0551121e-08
-2.2865712e-06
-2.0614196e-08
-2.2830441e-06
-6.4099136e-09
-2.2751186e-06
-1.2787831e-08
-2.2596683e-06
-2.2785717e-08
-2.2386736e-06
-3.2241611e-08
-2.2171733e-06
-2.9815992e-08
-2.1926856e-06
-3.8338673e-08
-2.1661962e-06
-4.5365633e-08
-2.1351174e-06
-5.5872348e-08
-2.1036814e-06
-5.5963786e-08
-2.0712065e-06
-5.8085523e-08
-2.0366792e-06
-6.3841099e-08
-2.0036485e-06
-6.1796883e-08
-1.9685469e-06
-6.8532552e-08
-1.9376393e-06
-5.9128447e-08
-1.9010198e-06
-7.4633044e-08
-1.8681312e-06
-6.9266441e-08
-1.8497522e-06
-4.8716303e-08
-1.8466104e-06
-1.2634699e-08
-1.8117754e-06
-6.2964822e-08
-1.7837347e-06
-3.5700405e-08
-1.7625038e-06
-2.8011468e-08
-1.7417072e-06
-2.6382848e-08
-1.7180561e-06
-3.1740708e-08
-1.6900555e-06
-4.2857331e-08
-1.6590836e-06
-5.1457214e-08
-1.6252792e-06
-5.9689004e-08
-1.5947204e-06
-5.1767811e-08
-1.5638742e-06
-5.2897537e-08
-1.5352047e-06
-4.8588429e-08
-1.5078955e-06
-4.6098999e-08
-1.4837967e-06
-3.8880234e-08
-1.4604557e-06
-3.7920123e-08
-1.4396298e-06
-3.2939253e-08
-1.4193566e-06
-3.2465915e-08
-1.4022722e-06
-2.5207482e-08
-1.3834858e-06
-3.0419356e-08
-1.3677369e-06
-2.4282339e-08
-1.3508263e-06
-2.8202584e-08
-1.3382254e-06
-1.814643e-08
-1.3235876e-06
-2.396078e-08
-1.3129518e-06
-1.4555959e-08
-1.2989933e-06
-2.3155044e-08
-1.2871312e-06
-1.7649237e-08
-1.2693515e-06
-3.2440636e-08
-1.2520965e-06
-3.1578984e-08
-1.2306802e-06
-4.1838899e-08
-1.2117891e-06
-3.5032593e-08
-1.1900136e-06
-4.2786855e-08
-1.1697678e-06
-3.992163e-08
-1.1527439e-06
-3.1564439e-08
-1.1390227e-06
-2.31117e-08
-1.1278419e-06
-1.7705943e-08
-1.1155818e-06
-2.2054939e-08
-1.1087183e-06
-9.4547148e-09
-1.1063969e-06
2.0617343e-09
-1.106587e-06
8.6495908e-09
-1.1071315e-06
8.2102438e-09
-1.1047256e-06
-1.5679787e-10
-1.1060878e-06
9.6172093e-09
-1.1017874e-06
-4.0896595e-09
-1.0996408e-06
1.5510103e-10
-1.0893307e-06
-2.0646958e-08
-1.0833846e-06
-9.2371008e-09
-1.0697112e-06
-2.781962e-08
-1.0586669e-06
-2.1802147e-08
-1.0390963e-06
-4.5588498e-08
-1.0308113e-06
-1.6429376e-08
-1.0290922e-06
4.4166432e-09
-1.0308887e-06
1.6210248e-08
-1.0247328e-06
-4.9670701e-09
-1.0228171e-06
2.3266585e-09
-1.0250014e-06
1.0950284e-08
-1.0250907e-06
5.6118043e-09
-1.0209942e-06
-3.7268433e-09
-1.0128638e-06
-9.768819e-09
-9.8992972e-07
-4.230803e-08
-9.4350783e-07
-9.5514386e-08
-8.8225366e-07
-1.2981347e-07
-8.3450852e-07
-1.0385586e-07
-8.0954035e-07
-5.7701738e-08
-7.8516698e-07
-5.7923336e-08
-7.6990173e-07
-3.2721701e-08
-7.4089785e-07
-6.2793676e-08
-7.1249845e-07
-6.0732631e-08
-6.7662325e-07
-8.3111904e-08
-6.5590102e-07
-4.5297357e-08
-6.299661e-07
-5.1231459e-08
-6.0542187e-07
-4.052782e-08
-5.8786243e-07
-2.6801049e-08
-5.6490256e-07
-4.7641195e-08
-5.4050131e-07
-5.5546237e-08
-4.9920508e-07
-9.143514e-08
-4.7607395e-07
-3.945408e-08
-4.5090046e-07
-4.7358565e-08
-4.5705406e-07
2.6736383e-08
-4.6682962e-07
3.6724024e-08
-4.7711296e-07
4.0268686e-08
-4.8694271e-07
3.8334041e-08
-4.5930825e-07
-6.0129059e-08
-4.4120022e-07
-4.0781004e-08
-4.1264054e-07
-6.664013e-08
-4.3973646e-07
7.4724029e-08
-4.6073388e-07
6.6565549e-08
-4.7255195e-07
4.4742811e-08
-3.6713066e-07
-2.4867647e-07
-2.1946659e-07
-3.5535255e-07
4.3075857e-08
-6.4788001e-07
2.1886521e-07
-4.4254758e-07
3.8031774e-07
-4.1394468e-07
2.7959723e-07
2.3284067e-07
1.4431227e-07
3.2114677e-07
-2.5060838e-08
4.27711e-07
2.8208007e-09
-5.6726576e-08
-2.7944401e-08
8.9987927e-08
-7.0700062e-08
1.0708558e-07
-2.1377303e-07
3.3476168e-07
-2.904522e-07
1.6457854e-07
-3.7861018e-07
2.1573489e-07
-4.016773e-07
6.8704313e-08
-4.171713e-07
2.9712819e-08
-4.1682372e-07
3.7687377e-09
-3.9894994e-07
1.1049749e-08
-3.1469576e-07
-1.7828585e-07
-9.9454943e-08
-6.4655456e-07
2.0899371e-07
-9.7753815e-07
1.5087012e-07
1.312307e-07
-3.160216e-07
1.3949244e-06
-1.086265e-06
2.1264492e-06
-1.2334592e-06
8.8404771e-07
5.5859793e-08
-2.7644399e-06
3.6582938e-06
-9.4737784e-06
6.3494929e-07
6.9443081e-06
4.0314175e-06
-9.4625486e-06
6.0119739e-07
8.3556209e-06
4.919833e-06
-1.0571909e-05
2.6243703e-06
5.7737263e-06
3.3261876e-06
-1.2659468e-06
2.3905595e-06
2.6351724e-06
5.1693599e-07
5.4699773e-06
1.0347732e-06
-6.4638346e-07
9.3192487e-08
2.4097191e-06
-1.7180846e-06
4.146644e-06
-1.0374074e-06
-1.7447859e-06
-2.0652819e-06
3.2058924e-06
-3.1821077e-05
7.4680107e-05
-2.1025178e-05
-2.6180805e-05
-2.5213402e-05
1.1424619e-05
-4.8824194e-05
5.891134e-05
3.4393521e-05
-0.00020949512
1.6596246e-05
4.2922981e-05
1.9257523e-05
-6.0910645e-06
1.0927105e-05
1.9808799e-05
8.1638528e-06
7.9320879e-06
9.0342125e-07
1.9030879e-05
-1.8295417e-06
8.0187114e-06
6.5133696e-07
-5.8503079e-06
2.2971601e-06
-4.6081042e-06
3.1239752e-06
-2.8374839e-06
5.1371175e-06
-6.4081884e-06
5.3092905e-06
-1.4879841e-06
1.1355083e-05
-1.4588387e-05
2.6201382e-05
-3.8612274e-05
3.1116844e-05
-1.3090236e-05
3.6539418e-05
-1.0735258e-05
1.5542481e-05
5.7265153e-05
2.9657635e-06
3.5364708e-05
-4.8413821e-06
1.8103456e-05
-7.0786341e-06
2.4435285e-06
-7.8397992e-06
2.5016654e-07
-7.602918e-06
-1.3527106e-06
-7.0846205e-06
-2.4241826e-06
-6.1727028e-06
-3.1621995e-06
-5.1691028e-06
-3.1554682e-06
-4.1958578e-06
-2.581534e-06
-3.3663526e-06
-2.0016142e-06
-1.6011695e-06
-2.2694836e-06
-2.0405178e-06
-1.7450952e-06
-1.6290747e-06
-1.1707884e-06
-1.5693143e-06
-9.1980216e-07
-8.6177797e-07
-7.9646321e-07
-4.865847e-07
-9.3600068e-07
1.046519e-07
-1.0648091e-06
1.289078e-07
-1.1414141e-06
-2.5426965e-08
-7.4615763e-07
-1.0001665e-06
-4.9098934e-07
-6.7127069e-07
-4.5793924e-07
-2.6218527e-07
-6.9954208e-07
6.1744671e-07
-9.9764135e-07
6.9676996e-07
-7.5033958e-07
-6.3749299e-07
-1.4706877e-06
2.7145343e-06
-1.4478115e-06
-6.6504326e-07
-3.5971822e-07
-3.7364245e-06
-5.3019232e-07
1.184392e-06
-3.5464883e-07
-2.3164547e-07
-1.6517788e-07
-5.1155916e-07
-8.7296361e-08
-1.946673e-07
-2.3183465e-08
-1.4931878e-07
3.9568379e-08
-1.4433362e-07
7.8110839e-08
-6.9348462e-08
1.1525535e-07
-8.3799129e-08
1.7234613e-07
-1.4990177e-07
1.637125e-07
5.0428558e-08
2.1273893e-07
-1.5577572e-07
1.9260495e-07
7.0675942e-08
2.0700189e-07
-5.2478975e-08
1.7996813e-07
7.1768124e-08
1.6609958e-07
6.0144854e-09
1.3811728e-07
6.029264e-08
1.0881077e-07
7.2133231e-08
6.2696495e-08
8.6796452e-08
4.3549293e-09
1.1207264e-07
-1.5610608e-08
1.1208584e-07
-3.8455466e-09
1.169106e-08
-1.3017526e-07
2.1710675e-08
9.3564155e-07
-3.1010662e-06
-5.7138522e-07
5.5105418e-06
9.1447778e-08
-2.8935225e-06
-2.6753513e-07
9.4990049e-07
-2.5198118e-07
4.7332679e-08
-3.0358812e-07
1.4017466e-07
-3.0062826e-07
-1.3146207e-07
-3.3259007e-07
1.0792203e-07
-3.3519988e-07
4.1107437e-08
-3.2508264e-07
-3.4723045e-08
-3.1213143e-07
-3.3732691e-08
-2.9623275e-07
-4.0859748e-08
-2.7396057e-07
-6.1640853e-08
-2.4256067e-07
-7.5075308e-08
-2.0426522e-07
-9.1123616e-08
-1.6149848e-07
-9.8112761e-08
-1.0995177e-07
-1.1729096e-07
-5.6449772e-08
-1.2230604e-07
-1.3888375e-08
-9.732985e-08
2.3923075e-08
-8.3018924e-08
3.9926926e-08
-3.2918841e-08
2.9082027e-08
2.532816e-08
-4.822796e-08
1.7424219e-07
-2.4704083e-07
4.4427807e-07
-4.6834964e-07
4.9420943e-07
-6.7189649e-07
4.5520906e-07
-8.7441186e-07
4.5090937e-07
-1.0690165e-06
4.336064e-07
-1.2563302e-06
4.162111e-07
-1.4349324e-06
3.9694947e-07
-1.6068167e-06
3.8082762e-07
-1.7698734e-06
3.5961883e-07
-1.9258916e-06
3.4614197e-07
-2.072583e-06
3.2527675e-07
-2.211855e-06
3.0830113e-07
-2.3427299e-06
2.8720623e-07
-2.4670955e-06
2.7289288e-07
-2.5805797e-06
2.481784e-07
-2.6837075e-06
2.256242e-07
-2.7791378e-06
2.0823225e-07
-2.867209e-06
1.9357329e-07
-2.9454732e-06
1.7449476e-07
-3.0172075e-06
1.604581e-07
-3.0841857e-06
1.4943401e-07
-3.1429759e-06
1.2991544e-07
-3.1957227e-06
1.1703992e-07
-3.2405276e-06
9.930967e-08
-3.2786735e-06
8.6851143e-08
-3.3079508e-06
6.4526639e-08
-3.3307072e-06
4.8911664e-08
-3.3445505e-06
2.7335591e-08
-3.3514556e-06
1.2214602e-08
-3.3491841e-06
-1.1436109e-08
-3.3434769e-06
-1.6258339e-08
-3.3310877e-06
-3.3003374e-08
-3.3256687e-06
-1.1828941e-08
-3.313186e-06
-2.5270551e-08
-3.288051e-06
-4.7920711e-08
-3.2547504e-06
-6.5542139e-08
-3.2190048e-06
-6.5561687e-08
-3.1807149e-06
-7.6628522e-08
-3.141321e-06
-8.4759608e-08
-3.096473e-06
-1.0072034e-07
-3.0509929e-06
-1.0144383e-07
-3.0042431e-06
-1.0483538e-07
-2.9556628e-06
-1.1242145e-07
-2.9095194e-06
-1.0794029e-07
-2.8619403e-06
-1.161116e-07
-2.819411e-06
-1.0165775e-07
-2.7714294e-06
-1.2261463e-07
-2.7294978e-06
-1.1119806e-07
-2.7114814e-06
-6.6732685e-08
-2.7113219e-06
-1.2794199e-08
-2.6621645e-06
-1.1212224e-07
-2.6146627e-06
-8.3202218e-08
-2.5791881e-06
-6.3486026e-08
-2.5439798e-06
-6.1591197e-08
-2.5049123e-06
-7.0808172e-08
-2.4612625e-06
-8.6507202e-08
-2.4149565e-06
-9.7763152e-08
-2.3661301e-06
-1.0851539e-07
-2.3209242e-06
-9.6973711e-08
-2.2756267e-06
-9.8195111e-08
-2.2332323e-06
-9.0982751e-08
-2.1927439e-06
-8.6587445e-08
-2.1561684e-06
-7.545575e-08
-2.120879e-06
-7.3209522e-08
-2.0889571e-06
-6.4861115e-08
-2.0580692e-06
-6.335377e-08
-2.0310043e-06
-5.2272456e-08
-2.0025946e-06
-5.8829007e-08
-1.9781424e-06
-4.8734606e-08
-1.9529274e-06
-5.3417583e-08
-1.9327041e-06
-3.8369648e-08
-1.9106761e-06
-4.5988859e-08
-1.8932417e-06
-3.1990261e-08
-1.8723757e-06
-4.4021063e-08
-1.8535987e-06
-3.642622e-08
-1.8284595e-06
-5.7579855e-08
-1.8040123e-06
-5.602621e-08
-1.7750075e-06
-7.0843716e-08
-1.7484555e-06
-6.158458e-08
-1.7190329e-06
-7.2209471e-08
-1.6916741e-06
-6.7280384e-08
-1.6676593e-06
-5.5579311e-08
-1.6471833e-06
-4.3587736e-08
-1.6298573e-06
-3.5031921e-08
-1.612206e-06
-3.9706187e-08
-1.6007355e-06
-2.0925244e-08
-1.5941782e-06
-4.4955566e-09
-1.590232e-06
4.7033961e-09
-1.5873011e-06
5.279293e-09
-1.5816104e-06
-5.8474313e-09
-1.5797997e-06
7.806502e-09
-1.5717539e-06
-1.2135488e-08
-1.5664829e-06
-5.1158882e-09
-1.5525902e-06
-3.4539729e-08
-1.543077e-06
-1.8750268e-08
-1.5249626e-06
-4.5933995e-08
-1.509887e-06
-3.6877771e-08
-1.4867205e-06
-6.8754985e-08
-1.4751694e-06
-2.7980489e-08
-1.468702e-06
-2.0507929e-09
-1.4649437e-06
1.2452011e-08
-1.4533256e-06
-1.6585198e-08
-1.4474806e-06
-3.5183748e-09
-1.4465918e-06
1.0061555e-08
-1.4435025e-06
2.522424e-09
-1.4354703e-06
-1.1758998e-08
-1.4212313e-06
-2.4007748e-08
-1.3888682e-06
-7.4671128e-08
-1.3281804e-06
-1.5620221e-07
-1.2500595e-06
-2.0793434e-07
-1.1903393e-06
-1.6357604e-07
-1.1604926e-06
-8.754838e-08
-1.1321287e-06
-8.6287193e-08
-1.1124316e-06
-5.2418829e-08
-1.0759533e-06
-9.9271959e-08
-1.0398793e-06
-9.6806575e-08
-9.9752442e-07
-1.2546679e-07
-9.7138183e-07
-7.143995e-08
-9.3640494e-07
-8.6208329e-08
-8.9952803e-07
-7.7404747e-08
-8.7193955e-07
-5.4389519e-08
-8.4192101e-07
-7.7659756e-08
-8.1237625e-07
-8.5091009e-08
-7.6168049e-07
-1.4213093e-07
-7.2749733e-07
-7.3637247e-08
-6.9221808e-07
-8.263785e-08
-6.9287941e-07