/*--------------------------------*- C++ -*----------------------------------*\
| =========                 |                                                 |
| \\      /  F ield         | OpenFOAM: The Open Source CFD Toolbox           |
|  \\    /   O peration     | Version:  2.4.0                                 |
|   \\  /    A nd           | Web:      www.OpenFOAM.org                      |
|    \\/     M anipulation  |                                                 |
\*---------------------------------------------------------------------------*/
FoamFile
{
    version     2.0;
    format      ascii;
    class       volVectorField;
    location    "270";
    object      U;
}
// * * * * * * * * * * * * * * * * * * * * * * * * * * * * * * * * * * * * * //

dimensions      [0 1 -1 0 0 0 0];

internalField   nonuniform List<vector> 
78300
(
(-0.019357607 9.4905971e-06 9.7670139e-20)
(-0.018806287 -4.0823956e-05 -1.3980979e-19)
(-0.012051776 -4.8722101e-05 8.0797513e-20)
(-0.01150808 -2.0346785e-05 -2.1300897e-18)
(-0.007576431 -0.00010937172 -4.3167601e-19)
(-0.0078893083 7.7342069e-05 7.8679938e-19)
(-0.0058460164 4.6618819e-05 3.9096897e-19)
(-0.0060874641 0.00049751582 -1.5217398e-18)
(-0.0042738029 0.00047961392 -6.0408405e-19)
(-0.0025842449 0.00027457119 8.6530072e-19)
(-0.0014262115 0.00035443256 5.8142165e-19)
(-0.001775707 0.00098843373 -2.1718616e-18)
(-0.0025318268 0.0013725121 3.7109285e-19)
(-0.0033286649 0.0021867075 -1.9931301e-18)
(-0.0061901639 0.0017756545 1.5941234e-18)
(-0.0070363701 0.00016967287 6.9070103e-19)
(-0.00071571692 0.0008214327 7.827525e-19)
(0.0013669317 0.0016635833 4.330482e-20)
(-0.0012155985 0.0006090098 -1.8718545e-19)
(-0.0010921849 0.00021153608 -1.7483328e-19)
(-0.00055605889 0.00014406898 -4.7454168e-19)
(-0.00032461678 4.5066524e-05 6.3183218e-19)
(-0.00016905736 -4.792285e-05 3.1925622e-19)
(-9.8597629e-05 -0.00013916562 -1.9852655e-19)
(-5.0817322e-05 -0.00023170032 -6.4355302e-19)
(8.2713112e-05 -0.00027623561 -2.01141e-19)
(0.0001285621 -0.00031763874 -3.0068076e-19)
(0.00018726418 -0.00034114709 1.2009515e-18)
(0.00026634272 -0.00032119297 1.0111007e-18)
(0.00023524075 -0.00032462109 7.1359792e-19)
(0.00024944809 -0.0003012213 -7.3492355e-19)
(0.00023309463 -0.00026213028 -1.5493189e-18)
(0.0002402506 -0.00019622943 -5.6590326e-19)
(0.00018461717 -0.00016952511 -7.5005805e-19)
(0.00016457109 -0.00013658995 8.2576636e-19)
(0.00010022097 -4.6433316e-06 -5.7070583e-19)
(-0.00015606775 5.8139803e-05 9.780568e-19)
(-0.000222086 -0.00019499651 3.9415687e-20)
(0.00042209118 -0.00015319928 2.7047782e-18)
(0.0018519633 0.00074897196 -6.2003555e-19)
(-0.0010042306 0.00097093859 1.2291543e-20)
(-0.0031625258 -0.00064481475 -7.0412024e-19)
(-4.0675842e-05 0.00042690496 -9.7591148e-19)
(-0.00053003089 0.0002589257 -1.0965801e-18)
(-0.00066766897 8.2322796e-05 1.836553e-18)
(-0.00063863014 0.00021596375 2.127171e-18)
(-0.00049979502 0.00032705925 -7.2102643e-19)
(-0.00061641978 0.00026202785 -1.9712157e-18)
(-0.00067698377 0.00022623928 1.9606981e-18)
(-0.0006264792 0.00020666738 -1.5875854e-18)
(-0.000565954 0.00017525707 -3.5302622e-18)
(-0.00050882581 0.00015576416 4.6969362e-19)
(-0.00043125051 0.00013043328 -6.6912141e-19)
(-0.00034601465 9.7009699e-05 -2.6207062e-18)
(-0.00027599257 7.117199e-05 -8.7875819e-19)
(-0.00018578178 3.8453476e-05 8.0249519e-19)
(-9.6771974e-05 1.2652144e-05 6.4959523e-19)
(-4.0699756e-06 -6.7720729e-06 1.5320294e-18)
(3.844184e-05 -1.2310518e-05 2.8114189e-20)
(0.00010026508 -1.8431646e-05 -1.6361902e-18)
(6.1059483e-05 -9.1486449e-06 3.9101244e-19)
(3.5487613e-05 -2.093862e-08 5.7676249e-20)
(-0.00020202994 1.0829911e-05 6.5938119e-20)
(-0.00060142642 1.2829165e-05 -9.2680772e-24)
(-0.00090558749 1.4998401e-05 2.1946081e-23)
(-0.0012444029 1.6210518e-05 7.0899022e-23)
(-0.0015417278 1.6835501e-05 -7.5709381e-23)
(-0.0018440786 1.7244139e-05 7.3517551e-23)
(-0.0021153687 1.7461316e-05 -4.713295e-23)
(-0.0023821487 1.7100268e-05 6.1955454e-23)
(-0.0026246344 1.555686e-05 -3.8798146e-23)
(-0.0028610811 1.5230743e-05 -8.3701119e-23)
(-0.0030825836 1.4730468e-05 1.1392687e-22)
(-0.0032940358 1.4333709e-05 4.5867569e-16)
(-0.0034838671 1.2850909e-05 4.6536717e-16)
(-0.0036606782 1.1657984e-05 -2.296976e-22)
(-0.0038225596 1.0024392e-05 8.6656872e-23)
(-0.0039653472 8.6932364e-06 8.0036308e-23)
(-0.004093565 6.8674248e-06 -9.1978746e-23)
(-0.0042177303 5.4844368e-06 7.4341367e-23)
(-0.0043346092 4.5232459e-06 -4.326331e-23)
(-0.0044418752 4.0197168e-06 1.1964854e-22)
(-0.0045472029 3.6900273e-06 -6.2503649e-23)
(-0.0046368573 3.0151665e-06 -9.4482868e-23)
(-0.0047143009 2.4294056e-06 9.5573742e-23)
(-0.0047838389 1.6591311e-06 -1.2583642e-23)
(-0.0048456609 1.5536337e-06 7.091102e-23)
(-0.0048939468 1.0032557e-06 -9.5348964e-23)
(-0.0049252944 4.3755625e-07 -5.7722561e-23)
(-0.004938991 -7.8123672e-07 9.0457642e-23)
(-0.0049357208 -1.524119e-06 -6.3709114e-23)
(-0.0049153593 -3.0749332e-06 4.9965508e-23)
(-0.0048846323 -3.9936419e-06 -2.3144351e-23)
(-0.0048477918 -5.4475231e-06 -2.3319636e-24)
(-0.0048167683 -5.5435794e-06 3.6873248e-24)
(-0.0048183675 -6.0880108e-06 2.8354181e-23)
(-0.0048045169 -5.1259588e-06 -2.4949342e-24)
(-0.0047919244 -4.5378621e-06 3.3582265e-23)
(-0.0047847703 -2.6467941e-06 -2.5259388e-24)
(-0.0047674599 -1.4914842e-06 -6.0560753e-23)
(-0.0047358596 -5.40735e-07 2.7730085e-23)
(-0.0046737936 -5.6392929e-07 -2.4432127e-24)
(-0.0046022114 -8.253901e-07 3.3718899e-23)
(-0.0045274237 -9.3210756e-07 -2.4139487e-24)
(-0.004443638 -1.7112049e-06 -6.0999499e-23)
(-0.0043493299 -2.136626e-06 -2.4086559e-24)
(-0.0042467867 -3.7632156e-06 3.5038766e-24)
(-0.004140184 -3.6844037e-06 2.779451e-23)
(-0.0040233572 -5.7404171e-06 -2.3769406e-24)
(-0.0038785839 -6.3192429e-06 -2.9417575e-23)
(-0.0037274033 -9.4541145e-06 5.3546642e-23)
(-0.0036668553 -9.7205088e-06 -5.6261248e-23)
(-0.0036114803 -1.1596027e-05 5.0731806e-23)
(-0.0035427354 -8.5049644e-06 -9.5833642e-24)
(-0.0035702036 -6.9507454e-06 4.7322209e-24)
(-0.0035909747 -4.6869576e-06 -2.0503671e-23)
(-0.0036013581 -3.1513716e-06 1.1346456e-23)
(-0.0035967613 -2.1145554e-06 2.805856e-24)
(-0.0035613397 -1.6235607e-06 -2.0543472e-24)
(-0.0035031353 -1.8597878e-06 -1.8769842e-24)
(-0.0034403883 -1.3502108e-06 3.8597504e-16)
(-0.0033849902 -1.1627295e-06 3.8498449e-16)
(-0.0033312969 -1.0828339e-06 2.205029e-23)
(-0.0032842688 -5.6602794e-07 -1.8606417e-24)
(-0.0032462246 -2.9612255e-07 -2.0183485e-24)
(-0.0032161643 2.1437926e-07 -1.409268e-24)
(-0.0031900757 2.664974e-07 -1.2144369e-25)
(-0.0031684047 5.326353e-07 -4.4851306e-24)
(-0.0031533076 8.6846646e-07 -1.9833014e-24)
(-0.0031378373 6.1110308e-07 7.0564162e-24)
(-0.0031195182 9.5553872e-07 3.7321783e-25)
(-0.0031011128 3.1191983e-07 3.787426e-24)
(-0.0030866001 6.6518308e-07 -6.2806612e-24)
(-0.0030757325 -1.0987735e-07 8.7692364e-25)
(-0.0030672372 5.1110881e-07 2.0308265e-25)
(-0.0030584666 -6.3885234e-07 3.9896085e-25)
(-0.0030458634 -3.0095677e-07 4.0563074e-26)
(-0.0030195918 -1.7722048e-06 2.5830632e-24)
(-0.0029753615 -1.1445275e-06 -1.1348601e-24)
(-0.002918613 -2.3993184e-06 -6.2078511e-24)
(-0.0028573329 -1.9293974e-06 1.1952273e-23)
(-0.0027931748 -2.5668594e-06 -1.7313956e-23)
(-0.0027225754 -2.3070326e-06 3.094208e-25)
(-0.0026659183 -1.8033982e-06 9.2186264e-24)
(-0.0026301159 -2.1392173e-06 -2.6022865e-24)
(-0.0026115978 -1.3766073e-06 6.2245801e-24)
(-0.0025911748 -2.7425961e-06 -2.6240082e-24)
(-0.002578122 -1.7068934e-06 -1.6792155e-25)
(-0.0025962222 -2.6411808e-06 -2.9733067e-24)
(-0.0026367218 -2.9053216e-06 -3.0808826e-24)
(-0.0026834843 -4.2687656e-06 -2.9751377e-24)
(-0.0027176938 -5.8330473e-06 1.1177094e-23)
(-0.0027516753 -6.3806549e-06 7.4511357e-24)
(-0.0027803443 -8.7611744e-06 1.2488633e-23)
(-0.0027938199 -8.5366512e-06 -4.6332877e-24)
(-0.0027879182 -1.1157381e-05 -1.3994655e-23)
(-0.0027646586 -1.0474645e-05 -3.4947011e-23)
(-0.0027378558 -1.2560864e-05 6.9504306e-16)
(-0.0026881623 -1.0989923e-05 3.3689115e-19)
(-0.0026147568 -1.2039584e-05 -7.2738677e-16)
(-0.0025500836 -1.0125908e-05 -5.5957583e-23)
(-0.0025568824 -1.0507276e-05 7.8813097e-24)
(-0.0026168462 -1.1714911e-05 -9.9012265e-23)
(-0.0026650176 -1.4389325e-05 1.0350889e-22)
(-0.002693326 -1.6656901e-05 1.04818e-23)
(-0.0027337526 -1.9358123e-05 -9.7138482e-23)
(-0.0027747349 -2.1614146e-05 5.460851e-23)
(-0.0027982543 -2.3802399e-05 -6.1800691e-23)
(-0.0028126353 -2.4027963e-05 9.2301154e-23)
(-0.0027840865 -2.664981e-05 -2.3488867e-23)
(-0.002665015 -2.5560877e-05 -4.8115611e-23)
(-0.0024340365 -2.3549568e-05 1.5425826e-23)
(-0.002180628 -1.8306849e-05 6.3831455e-23)
(-0.0020048373 -1.4821719e-05 -7.4167389e-23)
(-0.0018717659 -1.148152e-05 6.4867358e-23)
(-0.0017640029 -6.892556e-06 -7.0674989e-23)
(-0.0016658861 -5.8255132e-06 3.612396e-23)
(-0.0015266963 -4.3204302e-07 4.0627136e-23)
(-0.0013662135 1.4251867e-06 6.4603196e-23)
(-0.0012212306 8.2040599e-06 -7.5262809e-23)
(-0.0011353089 9.8922721e-06 -5.0326689e-23)
(-0.0010643139 1.188942e-05 6.3043037e-23)
(-0.00103129 1.1221223e-05 -1.3233697e-22)
(-0.00098067563 1.2776041e-05 1.2172074e-22)
(-0.00087295148 1.732081e-05 -7.0730119e-23)
(-0.00072002319 2.4906784e-05 6.0238927e-23)
(-0.00058775469 2.8767939e-05 -6.8155688e-23)
(-0.00052345557 2.8504231e-05 -4.4136908e-23)
(-0.00054954435 2.8544929e-05 3.6980937e-23)
(-0.00067380432 2.4892887e-05 -4.2704658e-23)
(-0.00082548811 1.3999644e-05 1.121136e-22)
(-0.00096881169 7.4575719e-06 -6.6937904e-23)
(-0.00098089528 9.7554402e-07 5.834999e-23)
(-0.00087006938 9.1164654e-06 -9.8543356e-23)
(-0.00075064631 1.0697782e-05 1.0237887e-23)
(-0.00077921495 1.5552839e-05 3.4122467e-23)
(-0.0010108358 -8.2507915e-07 3.7303433e-23)
(-0.0011893995 -1.2499665e-05 -1.4222379e-22)
(-0.00098100583 -1.5131846e-05 8.3286341e-16)
(-0.00021669262 2.0352247e-05 8.2899418e-16)
(0.0010761797 6.9684994e-05 -4.4986548e-23)
(0.0025200768 0.0001643605 -5.6839373e-23)
(0.0036652856 0.00021496027 3.7052771e-23)
(0.0039668003 0.00027410827 -2.5480488e-24)
(0.003267722 0.00022571902 -1.4643531e-23)
(0.0022995459 0.00020901065 -2.6392778e-16)
(0.0017920497 0.00016055421 -1.9247058e-16)
(0.0016965508 0.00016319173 -2.124544e-20)
(0.0014398763 9.5957611e-05 1.0035073e-19)
(0.00089318057 3.7787542e-05 -2.1084295e-21)
(0.00029660621 -5.1343318e-05 2.1446921e-19)
(-0.00017583461 -0.00012045536 6.2704616e-20)
(-0.00052522459 -0.00017114205 5.1250767e-19)
(-0.00063712803 -0.00020839834 -3.7813383e-20)
(-0.00074103498 -0.00026721642 6.3665574e-21)
(-0.0008569314 -0.00027175327 -2.4227738e-19)
(-0.00065288582 -0.00019288937 1.8339482e-19)
(0.00068889461 -0.00020682975 -6.1460164e-19)
(0.0032376656 -0.00054295625 7.0779144e-19)
(0.0043697035 -0.00094279444 3.960262e-19)
(0.0021660723 -0.00075392903 1.1021435e-18)
(-0.0029489226 -0.00010177069 -6.6260736e-18)
(-0.0086325408 0.00056137658 -1.0003831e-18)
(-0.0068958105 0.0016944522 3.0487078e-19)
(0.0097009716 0.0010341779 -2.1530458e-18)
(0.013720699 7.0501898e-05 8.5012826e-19)
(0.02022651 -0.004382917 -5.8479716e-19)
(0.022056564 -0.0046226265 2.3442369e-17)
(0.027844423 -0.0057883418 2.0213544e-18)
(0.033584984 -0.0031865456 8.9394769e-18)
(0.028371214 -0.0022591767 7.3395111e-17)
(0.024566752 -0.00075287712 -1.3476025e-17)
(0.011663033 0.0017773236 -8.1990998e-17)
(0.0034908977 0.0054273256 -5.955782e-17)
(0.00016740043 0.0077767006 2.2051478e-17)
(-0.0097025515 0.0065565685 1.0334219e-17)
(-0.01266039 0.0059797625 8.4903706e-18)
(-0.015347089 0.0080421397 -1.5748916e-17)
(-0.13998245 0.011169116 -4.3553547e-17)
(-0.21926422 0.0072029188 -7.8876361e-17)
(-0.20675176 0.0083263038 4.6799701e-17)
(-0.3246589 0.0063633243 8.3088129e-18)
(-0.080672974 -0.014764068 1.3438039e-16)
(0.18929028 -0.005731696 5.9490069e-17)
(0.14622642 -0.0023830185 -2.3084953e-17)
(0.11599677 -0.0074443864 8.682365e-17)
(0.075286631 -0.0049219798 -8.1318982e-18)
(0.029328388 0.0065110888 -1.1727748e-16)
(-0.019519542 0.011915113 -3.1016639e-18)
(-0.025424726 0.01562724 -1.0876341e-16)
(-0.0095226461 0.012078039 1.2251963e-16)
(0.0046459543 0.0064721459 1.1689704e-17)
(0.02293925 -0.0034532266 1.9674588e-17)
(0.038902355 -0.012645271 -4.8867494e-17)
(0.068740491 -0.016437524 3.1514438e-17)
(0.17029321 -0.024337033 1.8158612e-17)
(0.27224943 -0.023468867 9.7957163e-17)
(0.31656964 -0.022215663 2.5732597e-16)
(0.22508512 0.010000469 -1.4694997e-16)
(0.042711451 0.034598752 -3.5183263e-16)
(-0.073608923 0.029881667 -2.7410645e-16)
(-0.11439965 0.014076781 -3.3711952e-17)
(-0.1103118 0.006279513 3.6740919e-17)
(-0.099522471 0.0041204424 -3.3438358e-17)
(-0.087653508 0.0021742602 -1.6117234e-17)
(-0.07317656 0.00075606702 -2.5864974e-18)
(-0.055090744 0.00027618761 -3.2562566e-18)
(-0.043937625 0.0001681899 -1.5716589e-18)
(-0.031760862 0.00012915373 -8.4201311e-19)
(-0.028221593 7.2107569e-05 -1.1350653e-19)
(-0.029301708 -0.00010940227 1.0789677e-19)
(-0.032556911 -0.00015632257 4.0405274e-19)
(-0.017219314 -0.00014257195 -2.9835502e-19)
(-0.019035511 -5.1039709e-05 2.5123493e-18)
(-0.0104 -0.00032927054 2.608594e-20)
(-0.013733691 0.00025080695 2.9085292e-18)
(-0.0097627071 0.00011638218 -1.0324674e-18)
(-0.012487965 0.0014757874 2.1673878e-18)
(-0.0088609182 0.001422389 1.8307625e-18)
(-0.005076747 0.00077210744 -2.049199e-18)
(-0.0033320308 0.0010269712 -7.0084825e-19)
(-0.0051521705 0.0026263404 3.2281127e-19)
(-0.0069279593 0.0034961913 8.3397717e-18)
(-0.0095753389 0.0058789052 1.5031432e-18)
(-0.013010912 0.0039442376 -4.351642e-18)
(-0.011608756 0.0011332276 -6.1263681e-19)
(-0.002649772 0.0039567538 1.2605507e-18)
(-0.00056091922 0.0047311456 -5.3712441e-20)
(-0.0029299746 0.0016929998 -1.9326341e-19)
(-0.0020803958 0.00062373073 -7.2703325e-20)
(-0.0011088064 0.00041015386 2.1949542e-19)
(-0.00057835967 0.0001172792 -3.0733067e-19)
(-0.00018028601 -0.00016343092 -5.1590225e-19)
(8.3907796e-05 -0.0004387761 -1.5845946e-18)
(0.00031803613 -0.00070106975 5.8345407e-19)
(0.00060418986 -0.00082215948 1.0580862e-18)
(0.00075744577 -0.00096765431 1.7083729e-18)
(0.00088824187 -0.0010000951 -1.0154346e-18)
(0.00098674166 -0.00097601637 -4.456762e-19)
(0.00094198485 -0.00096669662 -2.3691269e-18)
(0.00092670646 -0.00091643007 3.7103062e-18)
(0.00082766701 -0.00078847802 2.2896608e-18)
(0.00071787375 -0.00059790918 4.1095587e-19)
(0.00057998454 -0.00051928257 8.0360535e-19)
(0.00048464371 -0.00041928814 2.3485231e-20)
(0.00014053209 -2.567099e-05 -2.7382981e-18)
(-0.00037203672 0.0001636861 -2.3249292e-18)
(-2.8096168e-05 -0.00054858731 -1.2315932e-19)
(0.00086351319 -0.00039659498 -2.6720188e-18)
(0.0012394468 0.0023182515 -3.074446e-19)
(-0.0027410247 -0.00016416139 -2.1443168e-23)
(-0.0037039455 -0.0016532029 -4.0113788e-18)
(-0.00092052436 0.0012337532 -6.2622731e-19)
(-0.0013680095 0.00077385325 -4.4222795e-19)
(-0.0012492979 0.00027240367 9.6871806e-19)
(-0.0015436539 0.00071983013 -5.4651386e-18)
(-0.0015766623 0.00096829456 1.6123122e-18)
(-0.0016206575 0.00074727162 -1.1562082e-18)
(-0.0016692846 0.0006667387 -1.2125265e-19)
(-0.0015812636 0.00061628623 -1.0365001e-18)
(-0.0014392463 0.00052499855 7.12203e-19)
(-0.0013367495 0.00047063061 -3.7416198e-18)
(-0.0011745982 0.00039346787 -2.631261e-19)
(-0.0009620846 0.0002930787 8.527296e-19)
(-0.00078427902 0.0002141396 -2.3883828e-19)
(-0.00052988578 0.00011884902 2.4770528e-18)
(-0.00027924273 4.2807438e-05 -2.5120385e-18)
(-1.8846619e-05 -1.6141317e-05 2.0394043e-18)
(0.00011148059 -3.5502037e-05 -6.1008114e-19)
(0.00032425982 -5.6841402e-05 5.5464548e-20)
(0.00024320276 -2.9932516e-05 1.4313152e-19)
(0.0002067281 -6.6782675e-06 1.2647216e-18)
(-0.00045909057 2.8634693e-05 -1.0137179e-19)
(-0.001610765 3.0532394e-05 1.8444819e-22)
(-0.0024787223 3.2499116e-05 3.7156475e-25)
(-0.0034577394 3.4087991e-05 3.7698857e-23)
(-0.0043263366 3.4909243e-05 -1.2589732e-22)
(-0.0052162559 3.4836827e-05 7.6030518e-23)
(-0.0060220069 3.4269516e-05 -2.6394947e-23)
(-0.0068211974 3.3246687e-05 -2.7408238e-23)
(-0.0075619118 3.1708843e-05 -2.8379056e-23)
(-0.0082835445 2.9942455e-05 9.6621195e-23)
(-0.0089538452 2.8469147e-05 -4.29797e-23)
(-0.0095975523 2.6683789e-05 -2.9268101e-23)
(-0.010190335 2.4353562e-05 -3.0105177e-23)
(-0.010755185 2.1395694e-05 1.7720258e-22)
(-0.011278252 1.8299278e-05 -1.1968718e-22)
(-0.011745331 1.5249695e-05 6.107788e-23)
(-0.012170261 1.249044e-05 -3.0269551e-23)
(-0.012579917 9.8374848e-06 9.1923008e-23)
(-0.012951625 8.0901305e-06 -3.0378723e-23)
(-0.013281461 6.8959276e-06 -3.0734868e-23)
(-0.013604733 5.7274511e-06 -3.1049666e-23)
(-0.013887311 4.2319284e-06 -3.1319053e-23)
(-0.014136047 2.8464075e-06 -3.1522652e-23)
(-0.014359095 1.5673532e-06 -3.1663616e-23)
(-0.014549442 8.5097098e-07 9.4245456e-23)
(-0.014699966 -1.9775179e-07 1.54805e-23)
(-0.014814748 -1.7831615e-06 1.1137146e-22)
(-0.014888172 -3.6760428e-06 -1.7467882e-22)
(-0.014916357 -5.6833402e-06 1.1121084e-22)
(-0.01490506 -8.1959755e-06 -3.1723948e-23)
(-0.014864142 -1.0082492e-05 -9.4540969e-23)
(-0.014800036 -1.1882501e-05 -3.0593336e-23)
(-0.014735737 -1.2007765e-05 3.9562033e-23)
(-0.014736481 -1.1312528e-05 2.2853831e-23)
(-0.014659736 -1.0158286e-05 5.4235551e-23)
(-0.014563822 -8.0818829e-06 3.7763948e-23)
(-0.014460106 -5.1513391e-06 -1.1381199e-22)
(-0.014325014 -3.1025617e-06 3.7792199e-23)
(-0.014191357 -2.7048668e-06 2.2062343e-23)
(-0.014003603 -3.3137268e-06 5.3832047e-23)
(-0.013799536 -3.4809012e-06 -1.1426855e-22)
(-0.013583512 -3.7479413e-06 5.3901318e-23)
(-0.013355601 -4.4628722e-06 2.2202962e-23)
(-0.013113941 -5.4718157e-06 3.8010042e-23)
(-0.012871158 -7.0906032e-06 -9.8370528e-23)
(-0.012623642 -8.6449392e-06 2.218912e-23)
(-0.012367243 -1.1204295e-05 6.3314463e-24)
(-0.012070353 -1.4366643e-05 6.7398281e-23)
(-0.011793685 -1.6601576e-05 -5.7294514e-23)
(-0.011761049 -1.720388e-05 2.0222315e-23)
(-0.011647791 -1.7742995e-05 -1.652858e-24)
(-0.011358387 -1.3615923e-05 -5.787886e-23)
(-0.011288447 -1.0154894e-05 1.2368464e-23)
(-0.011221003 -7.7151991e-06 1.2630466e-23)
(-0.011118931 -5.3854899e-06 7.3637025e-24)
(-0.01099557 -4.1538684e-06 1.7879757e-23)
(-0.010824234 -3.5559068e-06 1.1394629e-24)
(-0.010627247 -3.4635622e-06 -9.5926599e-24)
(-0.010423517 -2.7665598e-06 5.0027646e-24)
(-0.010231648 -2.4263468e-06 -7.4717791e-24)
(-0.010045927 -1.7641032e-06 2.9630685e-24)
(-0.0098766236 -1.5134295e-06 -4.6657633e-24)
(-0.009723651 -7.0121088e-07 9.9384358e-24)
(-0.0095869276 -5.0192587e-07 -1.8314803e-23)
(-0.0094611076 1.3887037e-07 -3.7581614e-24)
(-0.0093482882 2.3051814e-07 7.1052124e-24)
(-0.0092479199 7.3381223e-07 1.3108694e-23)
(-0.0091501596 5.2237065e-07 -1.787618e-24)
(-0.009053299 5.5428431e-07 -3.7939914e-24)
(-0.0089634183 3.5507477e-07 -7.0335313e-24)
(-0.0088816477 5.1595603e-07 6.4742336e-24)
(-0.0088092964 1.1874475e-07 -1.5727453e-24)
(-0.0087433156 -1.0165608e-07 -1.265755e-25)
(-0.0086791319 -6.1868798e-07 -8.0563591e-25)
(-0.0086095011 -1.0333616e-06 1.0546461e-25)
(-0.0085155585 -1.878033e-06 3.8627218e-24)
(-0.0083965228 -2.80878e-06 -7.0429504e-24)
(-0.0082594856 -3.2304444e-06 -1.180016e-24)
(-0.0081125912 -3.3482726e-06 -4.8855382e-24)
(-0.0079594428 -3.8342893e-06 1.43711e-23)
(-0.007803258 -3.894454e-06 1.2129213e-23)
(-0.0076706054 -3.6624576e-06 -2.2657431e-24)
(-0.0075660753 -3.2373068e-06 -3.0329093e-23)
(-0.0074903114 -4.0581496e-06 -1.7973821e-23)
(-0.0074189047 -4.2311856e-06 2.6409869e-23)
(-0.0073657117 -4.692662e-06 4.0783799e-23)
(-0.007363172 -4.6343647e-06 -6.9024245e-23)
(-0.0073908913 -6.0881917e-06 1.6979982e-23)
(-0.0074304269 -7.8409436e-06 -1.7072084e-24)
(-0.0074597444 -9.7020025e-06 3.4726092e-23)
(-0.007488923 -1.0906145e-05 -2.5759267e-23)
(-0.007505735 -1.2792694e-05 1.2778359e-23)
(-0.0074985587 -1.4765443e-05 1.8445947e-23)
(-0.0074717665 -1.5905175e-05 4.133544e-23)
(-0.0074109686 -1.622579e-05 -1.0347804e-22)
(-0.0073471101 -1.6802816e-05 4.1841487e-23)
(-0.0072382105 -1.7280421e-05 -1.6070901e-24)
(-0.0071062197 -1.6946937e-05 -6.5933086e-23)
(-0.0069976343 -1.4179575e-05 -2.8349489e-24)
(-0.0069828686 -1.3841521e-05 1.19655e-22)
(-0.0070290765 -1.6950751e-05 3.6250926e-23)
(-0.0070495797 -2.2094419e-05 -8.7859997e-23)
(-0.0070586272 -2.4249038e-05 1.1028244e-22)
(-0.0070979471 -2.6146787e-05 1.5541379e-23)
(-0.0071423206 -2.915256e-05 -1.0234485e-22)
(-0.0071570508 -3.1749558e-05 1.8428741e-22)
(-0.0071488484 -3.503877e-05 -1.3748614e-22)
(-0.0070460924 -3.7624315e-05 1.8327755e-23)
(-0.006789144 -3.9059946e-05 2.6597778e-23)
(-0.0063261177 -3.4202438e-05 -1.3857578e-22)
(-0.0058351837 -2.5415149e-05 1.5492772e-22)
(-0.0055258233 -1.5993658e-05 3.0625753e-23)
(-0.0053140743 -9.8559919e-06 -7.9478347e-23)
(-0.0051279029 -4.3920102e-06 -8.0171277e-23)
(-0.0049478088 -1.2606609e-06 -1.5371586e-22)
(-0.0046757885 2.7185439e-06 2.805751e-22)
(-0.0043932241 9.8780893e-06 1.9121945e-22)
(-0.0041450538 1.8522501e-05 -4.1201644e-22)
(-0.0039800295 2.3236116e-05 4.034336e-22)
(-0.0037843204 2.4885479e-05 -1.2085917e-22)
(-0.0036391018 2.3999786e-05 -1.8090923e-22)
(-0.0035064263 2.2657781e-05 -1.4391183e-22)
(-0.0033118157 2.7109692e-05 -1.0676179e-24)
(-0.0030548489 3.3221119e-05 3.2076176e-22)
(-0.0027703811 4.262734e-05 -2.2968455e-22)
(-0.002587528 4.3856241e-05 1.4315646e-22)
(-0.0025829204 4.5019034e-05 -2.1684008e-22)
(-0.0027274401 3.4953714e-05 2.4093344e-22)
(-0.0029125961 2.5713953e-05 -1.2906439e-22)
(-0.003062205 1.1516537e-05 7.7085011e-23)
(-0.0030354048 4.0337755e-06 2.5622696e-23)
(-0.0028340521 9.2368405e-06 -1.2750378e-22)
(-0.0026392952 1.8217626e-05 1.3265252e-22)
(-0.0026574437 2.1129476e-05 -1.8310263e-24)
(-0.0029863 5.4828896e-06 5.0069353e-23)
(-0.0031765407 -1.3945392e-05 -2.3476501e-22)
(-0.0028009684 -1.4994824e-05 1.5889666e-22)
(-0.0015288283 3.2130055e-05 5.016616e-23)
(0.00053992152 0.00011992893 -2.1864217e-22)
(0.0028107989 0.00023836168 2.114649e-22)
(0.004548696 0.00034872083 1.0376442e-22)
(0.004965581 0.00040411077 -1.4959678e-22)
(0.0037551762 0.00037765639 7.7581438e-23)
(0.0022188935 0.00029118724 -8.5385007e-23)
(0.0014847791 0.00022591072 -3.9790641e-23)
(0.0013886485 0.0001823891 5.5989161e-20)
(0.0010528819 6.3033733e-05 1.115966e-20)
(0.00015858191 -8.6396583e-05 -2.2545341e-22)
(-0.00091285038 -0.00027993013 -2.5825543e-19)
(-0.0017438147 -0.0004641467 -2.2658783e-19)
(-0.0022153507 -0.00059869739 -1.2728143e-18)
(-0.0023490956 -0.00071200141 -1.2371212e-18)
(-0.0026127729 -0.00089455145 3.4869728e-19)
(-0.0026264146 -0.0009224241 4.6404432e-19)
(-0.0019024922 -0.0007422349 -9.7987313e-20)
(9.1566886e-05 -0.00080848405 3.2812722e-19)
(0.0028434371 -0.0017078758 -4.4539431e-19)
(0.0034091826 -0.0028328146 1.0178742e-18)
(0.00090621394 -0.0022395782 6.8675047e-19)
(-0.004877939 -0.0006897477 5.300613e-18)
(-0.011684258 0.00064004416 -8.481952e-18)
(-0.005981136 0.0048544758 -2.4812662e-19)
(0.017487671 0.0036518538 1.0974115e-19)
(0.020051163 -0.00044731983 2.7741457e-18)
(0.02203444 -0.0089577652 4.7750639e-18)
(0.02272896 -0.014553696 -2.8361571e-17)
(0.030937568 -0.013496949 6.7069802e-17)
(0.043417036 -0.011559866 -2.3991442e-17)
(0.038254838 -0.0068838373 1.4943393e-17)
(0.035310052 -0.0042846608 -2.9519529e-17)
(0.020533284 0.0029586204 7.5608547e-17)
(0.015048538 0.012854978 2.1541576e-17)
(0.014047966 0.018460445 4.8202113e-17)
(-0.0032671165 0.015957295 -2.8966366e-17)
(-0.0083419528 0.013263091 5.5576915e-17)
(-0.0084961106 0.018288564 2.7647254e-17)
(-0.19591836 0.031498531 3.9053725e-17)
(-0.32025099 0.026506089 3.2115126e-18)
(-0.30231965 0.028601725 1.7348402e-16)
(-0.49001348 0.035750903 -1.1448237e-16)
(-0.13882369 -0.022106814 2.372323e-16)
(0.280748 -0.02153199 -1.1320367e-16)
(0.22207403 -0.0005505621 -4.5625158e-16)
(0.16696914 -0.021133056 6.3430518e-17)
(0.10869777 -0.0097902411 3.0101437e-17)
(0.055482685 0.016562757 2.091218e-16)
(-0.011798401 0.032843428 -4.0279728e-17)
(-0.014942071 0.043349177 5.3387495e-17)
(0.0043784145 0.034201215 -1.0765471e-17)
(0.017954808 0.020471456 -4.4962786e-17)
(0.031422912 -0.0034354821 -1.3779996e-16)
(0.041659866 -0.027756787 2.0623352e-17)
(0.082711013 -0.035788042 -2.8552357e-17)
(0.23141142 -0.047982709 2.8375588e-17)
(0.39198962 -0.059926509 -3.3699374e-17)
(0.46424563 -0.0464643 -3.1341202e-16)
(0.37518237 0.023010068 3.7685634e-16)
(0.14474397 0.083828664 9.4349406e-17)
(-0.037863089 0.071142173 3.3180927e-16)
(-0.13517077 0.032555912 -1.0677694e-16)
(-0.14978145 0.013775782 7.7450524e-17)
(-0.13730994 0.0083113824 -2.6255275e-17)
(-0.12536819 0.0036861205 -5.9826192e-17)
(-0.11175188 0.00071388068 -1.1495088e-17)
(-0.086156038 7.8859098e-05 9.1825041e-19)
(-0.074332384 -0.00015798936 2.5055783e-18)
(-0.051434055 -0.00010650048 4.4179407e-19)
(-0.048691515 -7.5057568e-05 4.1369959e-19)
(-0.029174513 -0.0001531203 1.0109849e-19)
(-0.037781433 -0.00023279794 -1.3851151e-19)
(-0.01572123 -0.0002215518 -3.1969788e-20)
(-0.020983423 -5.8043282e-05 -1.2656876e-18)
(-0.0088439018 -0.00050953433 2.6524684e-18)
(-0.015978428 0.00043456321 -1.9413135e-18)
(-0.010920324 0.00023795863 1.0253547e-18)
(-0.016842676 0.0024729627 -4.6029885e-18)
(-0.012083035 0.002369171 2.5268442e-18)
(-0.0066666472 0.0013519595 8.6751076e-20)
(-0.0049493072 0.0018083664 9.8195009e-19)
(-0.0083092093 0.0045792666 -1.7767413e-18)
(-0.01073347 0.0061381497 -8.2764286e-18)
(-0.015274406 0.0099787915 2.9134255e-18)
(-0.01688156 0.0071469216 4.613222e-18)
(-0.013410097 0.0018178853 1.6368995e-19)
(-0.0060593201 0.0059771093 -5.1791732e-19)
(-0.0039049755 0.0079046352 1.2524103e-19)
(-0.0043117316 0.002857082 4.1303614e-19)
(-0.0026714484 0.0010294915 2.9782102e-19)
(-0.0014635293 0.0006748337 6.2079228e-19)
(-0.00068972977 0.0001843586 1.7406418e-19)
(-6.86205e-05 -0.00028245439 -5.9720849e-19)
(0.00041022128 -0.00073608843 1.7525424e-18)
(0.00084884333 -0.0011778247 -6.3899849e-20)
(0.0012391125 -0.0013813885 1.2580081e-18)
(0.001525415 -0.0016113961 -1.2930915e-18)
(0.0016807118 -0.001679895 -9.6209432e-19)
(0.0017843279 -0.0016203606 -4.9305159e-20)
(0.0017234629 -0.0016094869 -1.1265527e-18)
(0.0016760041 -0.0015119342 4.232173e-19)
(0.0014678201 -0.0012983801 3.8458605e-19)
(0.0012029158 -0.00097001958 1.4547386e-18)
(0.00099086842 -0.00083218237 -5.8242634e-20)
(0.00080717415 -0.00066012154 3.2399526e-18)
(0.00013511953 -5.6447072e-07 2.4660245e-18)
(-0.00056104085 0.00031519449 5.3165341e-19)
(0.00032086479 -0.00086629085 -1.8232045e-19)
(0.0011277674 -0.00059225803 -3.7083256e-19)
(-0.00081185763 0.0038684369 1.3718941e-18)
(-0.0022143816 0.00072575634 -2.4745407e-20)
(-0.0027093849 -0.0029191219 6.3978673e-18)
(-0.0020153159 0.0021127968 2.8072306e-18)
(-0.002156697 0.0013107732 1.2324674e-20)
(-0.0016489274 0.00049641652 -7.7620059e-18)
(-0.002416938 0.0012291941 2.7716906e-18)
(-0.0027037419 0.0016728299 3.145584e-18)
(-0.0025719806 0.0013047267 2.5430944e-18)
(-0.0025878117 0.0011558098 3.9488396e-19)
(-0.0024889897 0.0010691298 -1.0252288e-18)
(-0.0022823374 0.00091619696 3.7504203e-18)
(-0.0021603992 0.00082435484 9.8733683e-19)
(-0.0019373636 0.00069544028 4.5929708e-19)
(-0.0016141085 0.00052711271 4.1955327e-18)
(-0.0013400412 0.00039304426 -2.5500653e-18)
(-0.0009310547 0.00023028551 -2.9643164e-18)
(-0.00052768464 9.9826488e-05 9.160282e-19)
(-0.00010787989 -1.3986749e-06 -1.1969623e-18)
(0.00010916024 -3.832405e-05 1.2499835e-18)
(0.0004762106 -7.8180466e-05 2.7215496e-18)
(0.00036008081 -3.9977465e-05 1.6158372e-19)
(0.00031454143 -4.8890787e-06 -7.7996702e-20)
(-0.00077727499 4.9690045e-05 1.4642869e-19)
(-0.0026761028 5.0554998e-05 -1.6527377e-22)
(-0.0041076204 5.1568983e-05 9.2306763e-24)
(-0.0057234577 5.3138595e-05 3.5346796e-23)
(-0.0071651188 5.3293914e-05 -8.0335953e-23)
(-0.008643393 5.2681536e-05 3.5786351e-23)
(-0.0099872386 5.1558341e-05 3.7203083e-23)
(-0.011322641 4.9861415e-05 -8.5205297e-23)
(-0.012569743 4.680687e-05 3.7844749e-23)
(-0.013783183 4.4828525e-05 3.9291258e-23)
(-0.014906624 4.2555231e-05 4.0679211e-23)
(-0.01598709 4.0316428e-05 -3.2481975e-23)
(-0.016991721 3.6782603e-05 -1.6817873e-23)
(-0.017956002 3.3384319e-05 -3.5812958e-23)
(-0.018851977 2.9133132e-05 4.2690823e-23)
(-0.019655546 2.5241552e-05 -1.7377996e-23)
(-0.020388985 2.1425604e-05 1.072707e-22)
(-0.02109278 1.8118272e-05 -9.8154092e-23)
(-0.021722258 1.5504638e-05 4.4672358e-23)
(-0.022272982 1.3738833e-05 1.2724015e-22)
(-0.022812463 1.2212122e-05 -9.9430719e-23)
(-0.02328878 9.8691314e-06 -3.5342708e-23)
(-0.02371062 7.9921362e-06 1.2872396e-22)
(-0.024087956 5.8431977e-06 -1.0069918e-22)
(-0.024404417 4.7788823e-06 4.5942181e-23)
(-0.024655372 2.6867301e-06 -3.7518587e-23)
(-0.024856504 5.6195241e-07 -1.7795858e-23)
(-0.024996504 -2.4660537e-06 4.6008205e-23)
(-0.025065286 -4.9245574e-06 4.5823565e-23)
(-0.025075918 -8.6854066e-06 -1.827652e-22)
(-0.025038069 -1.0680957e-05 1.2869285e-22)
(-0.024958812 -1.3582808e-05 -3.5572255e-23)
(-0.024867918 -1.2702328e-05 -9.8883562e-23)
(-0.024864659 -1.3133137e-05 4.5085033e-23)
(-0.024709244 -1.2595578e-05 1.2437339e-22)
(-0.024506795 -1.158426e-05 -2.6886861e-23)
(-0.024274354 -8.299657e-06 -3.4170948e-23)
(-0.023988922 -6.7739751e-06 -2.6337651e-23)
(-0.023737654 -6.3362255e-06 -2.6407987e-23)
(-0.023420208 -7.5003516e-06 5.3281899e-23)
(-0.023084765 -7.781886e-06 -2.6460644e-23)
(-0.022728691 -8.1657577e-06 -3.4272223e-23)
(-0.022363416 -9.5234517e-06 5.3487202e-23)
(-0.021987825 -1.0254742e-05 -2.6530638e-23)
(-0.021625913 -1.2813066e-05 -2.6376936e-23)
(-0.021261545 -1.305393e-05 2.6675822e-23)
(-0.020896833 -1.7145508e-05 4.1399235e-23)
(-0.020494801 -1.9104108e-05 3.0165085e-24)
(-0.020153571 -2.0877861e-05 -3.3106906e-23)
(-0.02020445 -1.8816639e-05 -2.4351518e-23)
(-0.020057021 -2.4451055e-05 7.5100748e-23)
(-0.019517415 -1.7892267e-05 -1.1271002e-22)
(-0.019296781 -1.3888277e-05 9.0679122e-23)
(-0.019095285 -1.0687812e-05 -7.2472016e-23)
(-0.018834969 -8.5564002e-06 2.8452063e-23)
(-0.018554995 -7.8384584e-06 1.2553567e-23)
(-0.018225525 -7.6978994e-06 2.9482003e-24)
(-0.017881804 -8.346782e-06 -2.1156446e-23)
(-0.017531589 -6.9719184e-06 1.3131491e-23)