y,k
1.0002443,1e-10
1.0005678,1.0125959e-06
1.0009018,1.7405771e-06
1.0012466,6.0952581e-06
1.0016026,1.5848843e-05
1.0019702,3.3412118e-05
1.0023498,6.1750658e-05
1.0027416,0.0001046832
1.0031463,0.00016710619
1.003564,0.00025513196
1.0039954,0.00037613794
1.0044407,0.00053868265
1.0049006,0.00075220043
1.0053753,0.0010263642
1.0058655,0.0013700229
1.0063717,0.0017897466
1.0068943,0.0022882074
1.0074338,0.0028629065
1.0079909,0.0035059149
1.0085661,0.0042048136
1.00916,0.0049445562
1.0097732,0.0057097148
1.0104064,0.0064864004
1.0110601,0.0072634241
1.011735,0.0080326784
1.0124319,0.0087889556
1.0131514,0.0095294
1.0138943,0.010252897
1.0146613,0.010959543
1.0154533,0.011650612
1.016271,0.012327968
1.0171153,0.012993223
1.017987,0.013647774
1.0188871,0.014292836
1.0198164,0.014929473
1.0207759,0.015558586
1.0217666,0.016180847
1.0227894,0.016796723
1.0238456,0.017406507
1.024936,0.018010365
1.0260619,0.018608367
1.0272243,0.019200513
1.0284246,0.019786749
1.0296638,0.020366986
1.0309433,0.02094111
1.0322644,0.02150899
1.0336284,0.022070487
1.0350368,0.022625452
1.0364909,0.023173733
1.0379923,0.023715175
1.0395424,0.024249622
1.041143,0.024776914
1.0427955,0.025296892
1.0445018,0.025809393
1.0462635,0.026314256
1.0480825,0.026811316
1.0499605,0.027300406
1.0518996,0.027781356
1.0539017,0.028253991
1.0559689,0.028718133
1.0581033,0.029173596
1.060307,0.029620187
1.0625823,0.030057708
1.0649316,0.030485949
1.0673572,0.030904691
1.0698616,0.031313703
1.0724475,0.031712745
1.0751173,0.032101558
1.077874,0.032479873
1.0807202,0.032847403
1.0836589,0.033203843
1.0866931,0.033548869
1.0898259,0.033882136
1.0930605,0.034203278
1.0964002,0.034511903
1.0998485,0.034807592
1.1034088,0.0350899
1.1070848,0.035358351
1.1108803,0.035612439
1.1147991,0.035851622
1.1188453,0.036075323
1.1230229,0.036282927
1.1273364,0.036473783
1.13179,0.036647193
1.1363883,0.036802419
1.141136,0.036938678
1.1460381,0.037055139
1.1510994,0.037150923
1.1563253,0.037225101
1.1617209,0.037276689
1.1672919,0.03730465
1.173044,0.037307909
1.1789829,0.037285335
1.1851149,0.037235727
1.1914461,0.037157842
1.1979831,0.037050383
1.2047325,0.036912007
1.2117013,0.036741322
1.2188965,0.036536888
1.2263255,0.036297225
1.233996,0.03602081
1.2419157,0.035706085
1.2500928,0.035351459
1.2585357,0.034955311
1.2672529,0.034515995
1.2762534,0.034031842
1.2855463,0.033501165
1.2951413,0.032922258
1.3050481,0.0322934
1.3152768,0.031612851
1.3258379,0.030878855
1.3367423,0.030089634
1.3480009,0.029243386
1.3596255,0.028338282
1.3716278,0.027372464
1.3840202,0.026344047
1.3968153,0.025251123
1.4100262,0.02409178
1.4236664,0.022864128
1.4377499,0.021566355
1.452291,0.020196871
1.4673047,0.018754697
1.4828063,0.017240496
1.4988117,0.01565836
1.5153371,0.014017522
1.5323996,0.012337069
1.5500166,0.010646934
1.5682061,0.0089598594
1.5869867,0.0072645076
1.6063776,0.0055498963
1.6263987,0.0038393124
1.6470703,0.0022331348
1.6684138,0.001004296
1.6904508,0.00035565121
1.713204,0.0001199338
1.7366966,4.266403e-05
1.7609526,1.5348608e-05
1.7859969,5.4234092e-06
1.8118551,1.8573242e-06
1.8385535,6.0662692e-07
1.8661196,1.8645032e-07
1.8945815,5.3994052e-08
1.9239683,1.5722599e-08
1.9543101,5.8315256e-09
1.9856379,3.6439921e-09
2.0179838,3.2776119e-09
2.0503297,3.3407154e-09
2.0816574,3.7818622e-09
2.1119992,4.9819785e-09
2.141386,7.7251239e-09
2.1698478,1.3684615e-08
2.1974138,2.6202396e-08
2.2241121,5.1662133e-08
2.2499702,1.0189505e-07
2.2750144,1.9808342e-07
2.2992703,3.7723378e-07
2.3227628,7.0429554e-07
2.3455158,1.2985568e-06
2.3675527,2.3986333e-06
2.388896,4.5307988e-06
2.4095676,8.9182839e-06
2.4295885,1.8375181e-05
2.4489793,3.8850997e-05
2.4677597,8.1217171e-05
2.4859491,0.00016191556
2.5035659,0.00030015952
2.5206283,0.00050903083
2.5371536,0.00078356032
2.5531588,0.0010993112
2.5686602,0.0014272809
2.5836738,0.0017492513
2.5982148,0.0020578279
2.6122981,0.0023497223
2.6259382,0.0026239634
2.6391489,0.0028813414
2.6519439,0.0031230652
2.6643361,0.0033502069
2.6763383,0.0035641767
2.6879627,0.0037665664
2.6992213,0.0039586164
2.7101255,0.0041415572
2.7206865,0.0043166924
2.7309151,0.004485316
2.7408218,0.0046486913
2.7504166,0.0048080708
2.7597095,0.004964727
2.7687098,0.0051199712
2.7774269,0.0052749204
2.7858696,0.005430499
2.7940466,0.0055876749
2.8019663,0.0057473055
2.8096366,0.0059099989
2.8170656,0.0060761267
2.8242607,0.0062458198
2.8312293,0.0064189468
2.8379786,0.0065951084
2.8445155,0.0067736425
2.8508467,0.0069536417
2.8569786,0.0071339833
2.8629174,0.0073133707
2.8686694,0.0074903824
2.8742403,0.0076635269
2.8796359,0.0078312974
2.8848616,0.0079922252
2.8899229,0.0081449276
2.8948249,0.0082881498
2.8995726,0.008420798
2.9041708,0.0085419624
2.9086243,0.0086509061
2.9129377,0.0087470763
2.9171153,0.0088301226
2.9211614,0.0088998755
2.9250802,0.0089563287
2.9288756,0.0089996282
2.9325515,0.0090300522
2.9361118,0.0090480045
2.93956,0.0090540589
2.9428997,0.009048894
2.9461342,0.0090333231
2.949267,0.0090081615
2.9523011,0.0089740839
2.9552398,0.0089318305
2.958086,0.0088822261
2.9608425,0.0088260786
2.9635124,0.0087640889
2.9660981,0.0086967838
2.9686025,0.0086245582
2.9710281,0.0085477532
2.9733774,0.0084666702
2.9756526,0.0083815595
2.9778563,0.0082926015
2.9799906,0.008199918
2.9820578,0.0081036012
2.9840599,0.0080037189
2.9859989,0.0079003106
2.987877,0.0077933869
2.9896959,0.007682929
2.9914576,0.0075688874
2.9931638,0.0074511818
2.9948163,0.0073297012
2.9964168,0.0072042943
2.997967,0.0070747643
2.9994683,0.0069408783
3.0009224,0.006802371
3.0023307,0.0066589432
3.0036948,0.0065102611
3.0050158,0.006355956
3.0062953,0.0061956248
3.0075345,0.0060288326
3.0087347,0.0058551166
3.0098972,0.0056739704
3.011023,0.005484849
3.0121135,0.005287249
3.0131696,0.0050807638
3.0141924,0.0048650873
3.0151831,0.0046400299
3.0161426,0.004405523
3.0170718,0.0041616101
3.0179719,0.0039085481
3.0188436,0.0036469643
3.0196878,0.0033779257
3.0205055,0.0031029947
3.0212975,0.0028242887
3.0220645,0.0025445218
3.0228074,0.0022670023
3.0235269,0.0019954932
3.0242238,0.001733972
3.0248987,0.0014863685
3.0255524,0.0012562707
3.0261855,0.0010465637
3.0267987,0.00085916467
3.0273926,0.00069497886
3.0279678,0.00055391602
3.0285249,0.00043498899
3.0290645,0.00033652365
3.029587,0.00025639906
3.0300932,0.00019228055
3.0305834,0.00014180484
3.0310581,0.00010271008
3.0315179,7.2924528e-05
3.0319633,5.0614495e-05
3.0323946,3.4202344e-05
3.0328124,2.2363892e-05
3.033217,1.401386e-05
3.0336089,8.2848729e-06
3.0339884,4.5015418e-06
3.034356,2.1501214e-06
3.034712,8.4146456e-07
3.0350569,2.7269448e-07
3.0353908,3.329301e-07
3.0357143,1e-10
