y,U_0,U_1,U_2,UMean_0,UMean_1,UMean_2
-5.5511152e-17,0,0,0,0,0,0
0.00024233637,0.0078392688,-3.7191493e-06,5.5736539e-24,-0.0038096572,1.5854335e-06,3.7639545e-24
0.00048856526,0.015723244,-6.0772547e-06,5.4200332e-24,-0.0076681641,2.7303205e-06,3.6215468e-24
0.00073874919,0.023621903,-1.013037e-05,-1.8287429e-24,-0.011565441,4.0067062e-06,-1.2387038e-24
0.00099295171,0.031510011,-1.4612764e-05,-2.7733839e-24,-0.015492267,5.7934012e-06,-1.8775571e-24
0.0012512373,0.039381121,-1.9957404e-05,1.3051291e-24,-0.019447645,8.0793929e-06,8.1471826e-25
0.0015136717,0.047228886,-2.5882823e-05,6.3974015e-24,-0.023430459,1.0866843e-05,4.2646252e-24
0.0017803214,0.055047083,-3.2103363e-05,5.0172348e-24,-0.027439471,1.4160406e-05,3.3555205e-24
0.0020512541,0.062829648,-3.8320072e-05,6.5643836e-24,-0.031473329,1.7964683e-05,4.3997163e-24
0.0023265387,0.0705707,-4.4215157e-05,5.2128853e-24,-0.03553057,2.2283386e-05,3.4806383e-24
0.0026062451,0.07826456,-4.9454598e-05,-2.1536895e-24,-0.039609624,2.7120288e-05,-1.4439059e-24
0.0028904442,0.085905774,-5.3689681e-05,-5.5824919e-25,-0.043708816,3.2477767e-05,-4.0371243e-25
0.0031792083,0.093489138,-5.6561425e-05,3.4826521e-24,-0.047826376,3.8359078e-05,2.3073837e-24
0.0034726106,0.10100972,-5.769783e-05,9.3837221e-24,-0.05196044,4.4766731e-05,6.2779032e-24
0.0037707257,0.10846282,-5.6710425e-05,8.8414933e-24,-0.056109061,5.1702007e-05,5.913847e-24
0.0040736293,0.11584402,-5.3199672e-05,-4.5086044e-24,-0.06027021,5.9168093e-05,-3.0345615e-24
0.0043813983,0.12314927,-4.6754658e-05,-5.8523797e-24,-0.064441786,6.7166901e-05,-3.8995861e-24
0.0046941108,0.13037481,-3.6956009e-05,3.7414935e-24,-0.068621618,7.5699301e-05,2.4994858e-24
0.0050118462,0.13751723,-2.3378399e-05,8.3673102e-24,-0.072807472,8.47673e-05,5.5193189e-24
0.0053346853,0.14457349,-5.5878219e-06,7.1499007e-24,-0.076997068,9.4372613e-05,4.7614756e-24
0.0056627099,0.15154087,1.6856346e-05,-7.4051787e-24,-0.081188085,0.00010451617,-4.8897083e-24
0.0059960035,0.15841702,4.4397836e-05,-1.272912e-23,-0.085378162,0.00011519953,-8.5356011e-24
0.0063346505,0.16519995,7.7484634e-05,3.2563246e-24,-0.089564899,0.00012642399,2.1529922e-24
0.0066787371,0.17188804,0.0001165692,-4.0825671e-24,-0.093745875,0.00013818949,-2.6669279e-24
0.0070283505,0.17848,0.00016210464,2.6434236e-24,-0.09791866,0.00015049591,1.7709072e-24
0.0073835797,0.18497494,0.0002145448,2.2969306e-23,-0.1020808,0.00016334529,1.5407017e-23
0.0077445146,0.1913723,0.00027434449,1.6340984e-23,-0.1062298,0.00017673876,1.0899718e-23
0.0081112471,0.19767184,0.00034195643,1.7489112e-23,-0.11036319,0.00019067686,1.1606727e-23
0.0084838703,0.20387372,0.00041783292,1.3690526e-23,-0.11447843,0.00020516151,9.188227e-24
0.0088624786,0.20997837,0.00050242243,-1.6099821e-23,-0.11857301,0.00022019531,-1.0756753e-23
0.0092471684,0.21598656,0.00059616908,-1.1502954e-23,-0.12264439,0.00023578199,-7.7409686e-24
0.0096380372,0.22189936,0.00069951397,1.6882459e-23,-0.12669003,0.00025192526,1.1197875e-23
0.010035184,0.22771814,0.00081289222,1.1830978e-23,-0.13070743,0.00026862897,7.9118923e-24
0.010438711,0.23344452,0.0009367337,-4.7941028e-25,-0.13469409,0.00028589707,-3.0611161e-25
0.010848719,0.23908039,0.0010714601,-1.5353896e-23,-0.13864754,0.00030373483,-1.0249016e-23
0.011265312,0.2446279,0.001217486,-7.4069811e-25,-0.14256528,0.00032214738,-4.1797003e-25
0.011688598,0.25008938,0.0013752183,2.8357596e-23,-0.14644487,0.00034113901,1.8944945e-23
0.012118682,0.25546741,0.001545054,2.0916631e-25,-0.15028383,0.0003607154,8.6467709e-27
0.012555674,0.26076471,0.0017273806,-2.9942112e-23,-0.15407978,0.00038088243,-2.0164202e-23
0.012999686,0.26598422,0.0019225761,-5.7245674e-24,-0.15783033,0.00040164443,-3.8973386e-24
0.01345083,0.27112897,0.0021310054,2.0608471e-24,-0.16153312,0.00042300032,1.2419452e-24
0.01390922,0.27620214,0.0023530218,-1.1045088e-23,-0.16518576,0.00044494355,-7.6162642e-24
0.014374973,0.28120704,0.0025889666,1.2997153e-24,-0.16878583,0.00046749428,7.1780817e-25
0.014848207,0.28614702,0.0028391673,-3.2770537e-24,-0.17233085,0.00049069422,-2.0478367e-24
0.015329042,0.29102554,0.0031039375,-6.112413e-24,-0.17581855,0.00051454408,-3.7646231e-24
0.015817601,0.29584606,0.0033835747,-4.5602326e-23,-0.17924681,0.00053902125,-3.0615548e-23
0.016314007,0.30061211,0.0036783603,-3.0561476e-23,-0.18261359,0.00056412959,-2.0510076e-23
0.016818387,0.30532721,0.0039885576,-1.0391013e-24,-0.18591692,0.00058986928,-4.9095751e-25
0.017330868,0.30999485,0.0043144149,-1.7696509e-24,-0.18915496,0.00061623764,-7.3878412e-25
0.017851582,0.31461853,0.0046561604,3.4273746e-23,-0.1923259,0.00064324448,2.3883074e-23
0.018380659,0.31920165,0.005014001,1.6749883e-23,-0.19542808,0.00067089258,1.2232364e-23
0.018918234,0.32374759,0.0053881232,1.4409861e-23,-0.19845999,0.00069918312,1.0049784e-23
0.019464444,0.32825961,0.0057786909,3.0816636e-23,-0.20142019,0.00072810474,2.1140147e-23
0.020019428,0.3327409,0.0061858456,8.6306575e-23,-0.20430728,0.00075765144,6.0421311e-23
0.020583326,0.33719452,0.006609704,4.341101e-23,-0.20711983,0.00078783154,3.0426689e-23
0.021156282,0.34162339,0.0070503658,-1.4482949e-23,-0.20985657,0.00081863599,-9.6084761e-24
0.02173844,0.34603026,0.0075079076,1.1050286e-23,-0.21251637,0.00085005693,8.572724e-24
0.02232995,0.35041771,0.0079823627,3.8562401e-24,-0.21509822,0.00088209653,3.4104149e-24
0.022930961,0.3547884,0.0084737516,2.7261366e-25,-0.21760128,0.00091475384,4.1716064e-26
0.023541625,0.35914497,0.0089820949,-3.254377e-23,-0.22002493,0.00094802557,-2.3483216e-23
0.024162099,0.36348976,0.0095073503,-5.662187e-23,-0.22236873,0.00098190773,-4.0240637e-23
0.024792538,0.36782504,0.010049434,-4.2522007e-24,-0.22463235,0.0010164014,-2.9156857e-24
0.025433104,0.37215304,0.010608258,2.4999271e-23,-0.22681551,0.0010515136,1.7507227e-23
0.026083959,0.37647568,0.011183717,-5.4302601e-23,-0.2289181,0.0010872361,-4.0663225e-23
0.026745269,0.38079444,0.011775656,-7.0015943e-23,-0.23094013,0.0011235472,-5.2003966e-23
0.027417201,0.38511011,0.012383806,-1.7075746e-23,-0.23288179,0.0011604405,-1.2900906e-23
0.028099925,0.38942334,0.013007885,-1.4797146e-23,-0.23474344,0.0011979225,-1.2249763e-23
0.028793616,0.39373496,0.013647632,8.7741483e-23,-0.23652552,0.0012359783,6.5584452e-23
0.029498449,0.39804571,0.014302729,1.5459831e-22,-0.2382286,0.0012745686,1.1810667e-22
0.030214604,0.40235616,0.014972809,-8.9405953e-24,-0.23985336,0.0013136819,-6.5156107e-24
0.030942262,0.40666671,0.01565746,-1.0735419e-22,-0.24140067,0.001353322,-8.3232735e-23
0.031681608,0.41097758,0.016356233,-6.4404761e-23,-0.24287161,0.0013934643,-5.0348784e-23
0.03243283,0.4152888,0.017068629,-4.5554363e-23,-0.24426743,0.001434071,-3.4668857e-23
0.033196118,0.41960026,0.017794106,2.8889254e-23,-0.2455895,0.0014751321,2.3364082e-23
0.033971666,0.42391167,0.018532075,3.9552914e-23,-0.24683925,0.0015166502,3.1285378e-23
0.034759672,0.42822261,0.019281904,-7.1109931e-23,-0.24801807,0.0015585953,-5.4552362e-23
0.035560335,0.43253251,0.020042909,-4.3965227e-24,-0.24912745,0.0016009334,-2.9201317e-24
0.036373858,0.43684067,0.020814365,8.2622495e-23,-0.25016911,0.0016436347,6.545342e-23
0.037200449,0.4411463,0.021595498,7.3888542e-23,-0.25114494,0.0016866525,5.9126265e-23
0.038040317,0.44544846,0.022385488,-5.7938893e-23,-0.2520568,0.0017299443,-4.6680224e-23
0.038893675,0.44974615,0.023183475,-1.8764487e-22,-0.25290649,0.0017734972,-1.4967325e-22
0.03976074,0.45403826,0.023988545,-5.3584324e-23,-0.25369584,0.0018172852,-4.3127789e-23
0.040641733,0.45832362,0.02479974,1.5086671e-23,-0.25442674,0.0018612813,1.1146419e-23
0.041536876,0.46260099,0.025616068,2.9194483e-23,-0.25510107,0.0019054915,2.3444374e-23
0.042446398,0.46686909,0.026436489,-9.9827745e-23,-0.25572047,0.0019498728,-7.9868343e-23
0.043370529,0.47112657,0.027259918,-1.8297189e-22,-0.25628653,0.0019943843,-1.4552259e-22
0.044309504,0.47537207,0.028085236,-9.1887597e-23,-0.25680087,0.0020390397,-7.2051839e-23
0.045263561,0.47960422,0.028911285,-3.9961454e-23,-0.25726513,0.0020837925,-3.1542253e-23
0.046232942,0.48382159,0.029736869,-3.0766153e-23,-0.25768118,0.0021285301,-1.897882e-23
0.047217894,0.48802279,0.030560748,-4.7035325e-24,-0.25805088,0.0021731956,5.5184208e-24
0.048218667,0.49220641,0.031381662,4.7340903e-23,-0.25837583,0.0022177945,3.9831955e-23
0.049235515,0.49637105,0.032198315,-3.4294454e-23,-0.25865764,0.0022622942,-2.7288772e-23
0.050268696,0.50051533,0.033009373,-4.3491248e-23,-0.25889829,0.0023065888,-3.2415023e-23
0.051318472,0.5046379,0.033813478,3.7728707e-24,-0.25909988,0.0023506444,9.7466295e-25
0.052385111,0.50873743,0.034609244,-1.4522686e-22,-0.25926433,0.0023944668,-1.2157842e-22
0.053468882,0.51281262,0.035395265,2.314646e-23,-0.25939332,0.0024379728,1.4297238e-23
0.054570061,0.51686222,0.036170101,2.0505225e-22,-0.25948844,0.0024811364,1.6525448e-22
0.055688928,0.52088501,0.036932294,-1.0016091e-22,-0.25955124,0.0025240027,-8.2074396e-23
0.056825767,0.52487984,0.037680371,-9.1319281e-23,-0.25958309,0.0025664748,-7.5333775e-23
0.057980866,0.52884559,0.038412833,-1.4803941e-23,-0.25958546,0.002608432,-1.192389e-23
0.059154519,0.53278122,0.039128154,-4.0762376e-23,-0.25955992,0.0026498368,-4.0490868e-23
0.060347024,0.53668571,0.039824813,-2.4797394e-23,-0.25950787,0.0026906432,-2.5264646e-23
0.061558683,0.54055815,0.040501253,-6.63558e-23,-0.2594308,0.0027308883,-4.8127e-23
0.062789805,0.54439768,0.041155907,1.1865231e-22,-0.25933033,0.0027706185,1.0532607e-22
0.064040701,0.54820351,0.041787193,1.1980585e-22,-0.2592082,0.0028098223,9.8392516e-23
0.06531169,0.55197494,0.042393511,-4.9458842e-24,-0.25906587,0.00284851,-7.3056483e-24
0.066603094,0.55571133,0.042973247,2.2102215e-22,-0.25890406,0.0028866713,1.8486722e-22
0.067915242,0.55941208,0.043524771,1.4454071e-22,-0.25872319,0.0029242653,1.2080711e-22
0.069248465,0.56307657,0.044046426,2.2715499e-22,-0.25852369,0.0029612662,1.8016385e-22
0.070603104,0.56670417,0.044536586,4.3368085e-22,-0.25830566,0.002997636,3.5736209e-22
0.071979501,0.57029393,0.04499354,1.7068624e-23,-0.25806912,0.0030332788,1.8791738e-23
0.073378007,0.57384496,0.045415505,-3.7937523e-22,-0.25781429,0.0030680713,-3.0218679e-22
0.074798976,0.57735698,0.045800873,-5.0646035e-22,-0.25754156,0.0031019731,-4.016372e-22
0.07624277,0.58082992,0.046148052,-3.1196165e-22,-0.25725151,0.0031349257,-2.640359e-22
0.077709754,0.58426381,0.046455528,-9.786228e-23,-0.25694486,0.0031668619,-9.0246111e-23
0.079200302,0.58765819,0.046721694,1.4777751e-22,-0.25662228,0.0031977832,1.3278456e-22
0.080714792,0.59101149,0.046944733,1.8097122e-22,-0.25628398,0.0032276525,1.5868464e-22
0.082253608,0.59432125,0.047123157,-1.0653693e-22,-0.25593002,0.0032563483,-7.883474e-23
0.083817142,0.59758336,0.047255739,-2.7061845e-22,-0.25556084,0.0032837955,-2.2207563e-22
0.085405789,0.60079248,0.047341175,-4.427256e-22,-0.2551768,0.0033100148,-3.7429133e-22
0.087019955,0.60394435,0.047378105,1.9853287e-22,-0.25477817,0.0033350625,1.6367139e-22
0.088660047,0.60703705,0.047365348,4.9296411e-22,-0.25436546,0.0033589109,4.1521056e-22
0.090326484,0.61006994,0.047301809,-1.7694092e-22,-0.25393863,0.0033814265,-1.3102316e-22
0.092019688,0.61304214,0.047186315,-2.277318e-22,-0.25349718,0.0034025717,-1.8017857e-22
0.093740089,0.61595222,0.047017636,1.9342227e-22,-0.25304109,0.003422431,1.5295029e-22
0.095488124,0.61879842,0.046794551,3.525147e-22,-0.25257076,0.0034410258,2.9122473e-22
0.097264236,0.62157879,0.046515875,1.3162345e-22,-0.25208614,0.0034582578,9.8560514e-23
0.099068878,0.62429131,0.046180441,-1.238635e-22,-0.25158673,0.0034740803,-1.1111073e-22
0.10090251,0.62693382,0.045787098,-1.5783954e-22,-0.25107196,0.0034884439,-1.1875128e-22
0.10276559,0.62950404,0.045334722,2.3196092e-22,-0.25054172,0.0035012589,1.9371562e-22
0.10465859,0.63199948,0.044822207,2.0845266e-22,-0.24999604,0.0035125393,1.5958251e-22
0.10658201,0.63441743,0.044248446,-1.3963183e-22,-0.24943496,0.0035223551,-1.3506247e-22
0.10853631,0.63675504,0.04361233,-6.1100291e-23,-0.2488589,0.0035307882,-6.7442455e-23
0.11052201,0.63900943,0.042912763,-1.0368764e-22,-0.24826846,0.0035378684,-1.080586e-22
0.11253961,0.64117765,0.042148685,-3.5570167e-23,-0.24766413,0.0035436608,-4.8741119e-23
0.11458961,0.64325662,0.041319056,3.154888e-22,-0.24704597,0.0035485404,2.5522796e-22
0.11667254,0.64524307,0.040422844,4.8000773e-22,-0.24641391,0.0035527489,4.1112427e-22
0.11878893,0.64713347,0.039459009,2.1646658e-22,-0.2457685,0.0035561941,1.9268304e-22
0.12093931,0.64892414,0.038426491,3.8768905e-22,-0.24510987,0.0035591036,3.3098637e-22
0.12312423,0.65061135,0.037324233,8.4838734e-22,-0.24443642,0.0035621248,7.2808224e-22
0.12534425,0.65219125,0.036151199,1.0790571e-21,-0.24374754,0.0035654515,9.3278427e-22
0.12759992,0.65365978,0.034906363,6.6508773e-22,-0.2430453,0.0035683429,5.7172268e-22
0.12989183,0.65501254,0.033588685,-2.721229e-22,-0.24233082,0.003570766,-2.2874018e-22
0.13222055,0.65624489,0.032197108,-2.212542e-22,-0.241603,0.0035738849,-1.6829332e-22
0.13458668,0.65735203,0.030730583,5.5038628e-23,-0.24086148,0.0035779465,6.2652203e-23
0.13699081,0.65832912,0.029188081,-3.556302e-22,-0.24010775,0.0035824816,-3.0078819e-22
0.13943356,0.65917113,0.027568606,-6.1245399e-22,-0.23934388,0.0035875794,-5.2496072e-22
0.14191555,0.65987283,0.025871204,-1.2709781e-22,-0.23857178,0.0035934505,-1.0379325e-22
0.1444374,0.66042872,0.024094954,5.62744e-24,-0.23779289,0.0036000133,2.2144336e-23
0.14699976,0.66083308,0.022239024,-4.900226e-22,-0.2370079,0.0036071572,-4.0427776e-22
0.14960327,0.66107975,0.020302767,-2.1106015e-22,-0.23621687,0.0036149414,-1.7550346e-22
0.15224861,0.66116194,0.018285578,1.8289298e-22,-0.23541982,0.0036232585,1.4811055e-22
0.15493644,0.66107365,0.016186604,1.8231923e-22,-0.23461719,0.0036319272,1.4640005e-22
0.15766744,0.66081207,0.014004978,-3.6404535e-22,-0.23381013,0.0036407926,-2.8266494e-22
0.1604423,0.66037763,0.011740321,-9.3837937e-24,-0.23300013,0.0036491672,6.3552316e-24
0.16326174,0.65977003,0.0093926415,-2.2930873e-22,-0.23218659,0.0036566588,-1.6615042e-22
0.16612647,0.65898458,0.0069618913,-2.3351501e-22,-0.23136711,0.00366379,-1.834214e-22
0.16903721,0.65801297,0.0044481607,5.3810869e-22,-0.23054094,0.0036703873,4.6007081e-22
0.1719947,0.6568466,0.0018521879,1.4146107e-21,-0.22970839,0.0036757787,1.099174e-21
0.1749997,0.65547873,-0.00082536083,1.8077824e-21,-0.22886884,0.0036798461,1.3470154e-21
0.17805296,0.65390707,-0.0035827761,9.3324253e-22,-0.22802129,0.0036824711,6.7579832e-22
0.18115527,0.65213618,-0.0064146891,1.0255053e-22,-0.22716383,0.0036835684,7.0898234e-23
0.18430741,0.65017132,-0.0093171131,-6.2869805e-22,-0.22629264,0.0036829298,-4.5309547e-22
0.18751018,0.64801351,-0.012290934,-4.3688071e-22,-0.22540404,0.0036802997,-3.1911858e-22
0.1907644,0.64567078,-0.015329864,-5.0521997e-22,-0.2244973,0.0036751523,-3.7768358e-22
0.19407088,0.64316299,-0.01841914,-4.1586346e-22,-0.22357149,0.0036669231,-2.8413459e-22
0.19743048,0.64049753,-0.021561885,-6.1674444e-22,-0.22262347,0.00365572,-3.9742126e-22
0.20084404,0.63767775,-0.024760507,4.0922232e-22,-0.22165087,0.0036415676,2.7917093e-22
0.20431243,0.63472191,-0.028000224,5.0924991e-22,-0.22065254,0.0036239739,3.5994124e-22
0.20783653,0.63163851,-0.031280922,-1.3859632e-22,-0.21962751,0.0036025503,-7.4877827e-23
0.21141724,0.62842952,-0.034606101,2.9818057e-22,-0.21857526,0.0035772247,1.9015948e-22
0.21505546,0.62510448,-0.037970405,3.4354652e-22,-0.21749549,0.0035479951,2.1899436e-22
0.21875212,0.62167266,-0.041371467,7.046663e-22,-0.2163869,0.0035146851,4.7343975e-22
0.22250816,0.61814278,-0.044807349,1.0637134e-21,-0.21524712,0.0034767184,7.0730861e-22
0.22632453,0.61452486,-0.048274174,6.6210185e-22,-0.21407354,0.0034338119,4.3192695e-22
0.2302022,0.61082512,-0.051771164,-3.0913789e-22,-0.21286433,0.0033860424,-2.3772738e-22
0.23414215,0.60704612,-0.055298892,-1.4243735e-21,-0.21161837,0.0033333069,-9.5759462e-22
0.23814539,0.60319132,-0.058855852,3.0602088e-22,-0.21033411,0.0032752048,2.3505554e-22
0.24221294,0.59926052,-0.062443453,8.8669357e-22,-0.20900888,0.0032113483,6.1084995e-22
0.24634581,0.59525147,-0.066063013,7.09718e-22,-0.20763951,0.0031416809,5.1289267e-22
0.25054508,0.59116464,-0.069713122,2.2781865e-21,-0.20622287,0.0030661354,1.5423389e-21
0.25481179,0.5870002,-0.073393545,6.1514898e-22,-0.20475597,0.0029843721,4.225234e-22
0.25914703,0.58275747,-0.077104347,1.344142e-22,-0.20323584,0.0028961418,1.2469618e-22
0.26355191,0.57843579,-0.08084537,6.8967305e-22,-0.2016598,0.002801431,4.8432897e-22
0.26802755,0.57403376,-0.084617011,-3.4784788e-23,-0.20002561,0.0027001293,-2.5664623e-23
0.27257507,0.56955,-0.088419416,6.2306825e-22,-0.19833054,0.0025918746,4.0485875e-22
0.27719564,0.5649836,-0.09225253,1.4643229e-21,-0.19657091,0.0024762398,9.7517659e-22
0.28189043,0.56033414,-0.096116047,9.1485731e-22,-0.19474331,0.0023529437,5.8398991e-22
0.28666062,0.55560185,-0.1000092,-4.6130986e-22,-0.19284574,0.002221921,-3.5410178e-22
0.29150744,0.55078674,-0.10393142,-3.3027778e-22,-0.19087665,0.0020829581,-2.2929948e-22
0.29643211,0.54588843,-0.10788227,-7.8426244e-22,-0.18883364,0.0019358383,-5.1840145e-22
0.30143588,0.54090653,-0.11186124,-2.9505299e-21,-0.18671345,0.0017806366,-1.9717515e-21
0.30652003,0.53584083,-0.11586771,-2.2723772e-21,-0.1845123,0.0016172517,-1.498971e-21
0.31168584,0.53069142,-0.11990094,-5.3140924e-22,-0.18222639,0.0014455847,-3.5207191e-22
0.31693462,0.52545866,-0.12396004,-8.448242e-22,-0.1798519,0.0012654274,-5.7264828e-22
0.32226771,0.52014294,-0.128044,-2.3284208e-22,-0.17738526,0.0010763563,-1.5369089e-22
0.32768647,0.51474473,-0.13215171,3.4718482e-22,-0.17482337,0.00087817932,2.5456707e-22
0.33319226,0.50926466,-0.13628199,9.599879e-22,-0.17216303,0.00067072942,6.7182836e-22
0.33878649,0.5037034,-0.14043361,7.5820835e-22,-0.16940101,0.00045379111,5.365048e-22
0.34447058,0.4980617,-0.14460523,-4.6297503e-22,-0.16653389,0.00022710648,-2.7394721e-22
0.35024597,0.49234044,-0.14879545,1.4850031e-21,-0.1635579,-9.6385654e-06,9.7170554e-22
0.35611413,0.48654063,-0.15300276,3.8895606e-21,-0.16046937,-0.0002565609,2.4832385e-21
0.36207654,0.48066335,-0.15722547,2.3910613e-21,-0.15726486,-0.00051346146,1.5116935e-21
0.36813472,0.47470988,-0.16146184,5.3493293e-22,-0.15394033,-0.00077996772,3.0848779e-22
0.37429022,0.46868159,-0.16571001,-2.776896e-23,-0.15049062,-0.0010562111,-4.9172943e-23
0.38054458,0.46257992,-0.16996796,1.6460628e-21,-0.14691108,-0.0013432682,1.0052791e-21
0.38689941,0.45640636,-0.17423356,8.9384874e-22,-0.14319901,-0.0016413561,5.6252905e-22
0.39335631,0.45016252,-0.1785045,-1.1913765e-21,-0.13935134,-0.0019496607,-7.1142474e-22
0.39732792,0.44634166,-0.18109181,-5.4434986e-23,-0.13693743,-0.0021428128,-1.3279057e-23
0.39991692,0.44384977,-0.18277674,6.9321318e-22,-0.13536383,-0.002268735,4.4567478e-22
0.40658292,0.43746964,-0.18704648,-1.3194771e-22,-0.13123346,-0.0025992984,-8.0125632e-23
0.41335599,0.43102426,-0.19131314,1.057398e-21,-0.12695731,-0.0029408022,6.4418627e-22
0.42023785,0.42451533,-0.1955734,-8.1072363e-23,-0.12253067,-0.0032932583,-6.3612189e-23
0.42723025,0.41794513,-0.19982348,-1.6375811e-21,-0.11794853,-0.0036572649,-1.0095479e-21
0.43433496,0.4113172,-0.20405904,1.465454e-21,-0.11320697,-0.0040328458,9.2503986e-22
0.44155379,0.40463671,-0.20827521,8.6960143e-22,-0.10830238,-0.0044201045,5.5072757e-22
0.44888858,0.39790986,-0.21246687,-4.1176067e-22,-0.10323223,-0.0048191542,-2.5774519e-22
0.45634118,0.3911429,-0.21662918,-7.0193121e-22,-0.097995416,-0.0052293404,-4.7503139e-22
0.46391349,0.38434174,-0.22075667,-1.8977152e-21,-0.092589907,-0.0056500858,-1.2720031e-21
0.47160743,0.37751249,-0.22484341,2.8127376e-21,-0.087011979,-0.0060814234,1.9541375e-21
0.47942495,0.37066202,-0.22888484,4.6994512e-21,-0.081257421,-0.0065235575,3.2319691e-21
0.48736804,0.36379923,-0.23286948,-5.3284181e-22,-0.07532178,-0.0069765065,-4.2368805e-22
0.49543872,0.35693634,-0.23679331,-1.6649725e-22,-0.06920021,-0.007440454,-9.6607559e-23
0.50363903,0.35009094,-0.24066554,3.5427841e-21,-0.062887826,-0.0079153331,2.5984168e-21
0.51197106,0.34327036,-0.24447448,2.4161492e-21,-0.056380174,-0.0084006954,1.7636729e-21
0.52043692,0.33647098,-0.2482,2.5671082e-21,-0.049672735,-0.0088962635,1.9804875e-21
0.52903876,0.32969569,-0.25183506,3.4509295e-21,-0.042760372,-0.0094018767,2.6524662e-21
0.53777878,0.32295319,-0.25537202,1.2878129e-21,-0.035637622,-0.0099174108,9.9175715e-22
0.54665917,0.31625462,-0.25880274,2.6213818e-22,-0.028298817,-0.010442623,2.2164753e-22
0.55568221,0.30961434,-0.26212147,1.0197625e-22,-0.020737312,-0.010977502,8.5284761e-23
0.56485018,0.3030517,-0.26531276,-8.4385728e-22,-0.012945637,-0.011521901,-7.8802826e-22
0.57416542,0.29658737,-0.26835764,-8.6859409e-22,-0.0049164288,-0.0120751,-8.5275879e-22
0.58363027,0.29023823,-0.27124671,2.5425013e-21,0.0033572596,-0.012636815,2.2687381e-21
0.59324716,0.28402024,-0.27396887,2.3099659e-21,0.011882351,-0.013207714,2.0520758e-21
0.60301852,0.27795255,-0.27650898,2.1759609e-22,0.020665197,-0.013786894,8.6822917e-23
0.61294683,0.27205634,-0.27885312,7.1516117e-22,0.029713151,-0.014373528,6.3744041e-22
0.62303461,0.26635444,-0.28098696,2.6474365e-21,0.039035611,-0.014966791,2.7570408e-21
0.63328443,0.26087113,-0.28289581,1.6176722e-21,0.048641647,-0.015564659,1.6495656e-21
0.64369889,0.25563215,-0.28456467,-1.2310943e-21,0.058539851,-0.016166318,-1.3258259e-21
0.65428063,0.25066458,-0.28597844,1.5359892e-22,0.06873799,-0.01677171,2.6898084e-22
0.66503233,0.24599679,-0.287122,8.4446629e-22,0.079242327,-0.017380483,8.7887607e-22
0.67595674,0.24165831,-0.28798041,1.5511416e-21,0.090060359,-0.017990522,1.9757315e-21
0.68705662,0.23767969,-0.2885391,2.6476785e-21,0.10119989,-0.018600444,3.4731724e-21
0.69833479,0.23409226,-0.2887841,1.7881954e-21,0.11266679,-0.019209812,2.3460608e-21
0.70979411,0.23092787,-0.28870231,2.3408799e-21,0.12446551,-0.019817306,3.5741271e-21
0.72143751,0.22821851,-0.28828174,2.5550469e-21,0.13659993,-0.020421578,4.1314034e-21
0.73326792,0.22599587,-0.28751183,2.8915375e-21,0.14907464,-0.021021568,4.6040502e-21
0.74528836,0.22429081,-0.28638371,1.751605e-21,0.16189255,-0.021616159,2.8254782e-21
0.75750187,0.22313272,-0.2848904,-2.4830395e-21,0.17505561,-0.022204174,-4.5534238e-21
0.76991157,0.22254893,-0.28302665,-3.4107845e-21,0.1885677,-0.022784662,-6.5482011e-21
0.7825206,0.22256408,-0.28079044,-3.1817842e-22,0.20243343,-0.023356822,-6.112021e-22
0.79533216,0.22320032,-0.27818313,1.2228998e-21,0.21665713,-0.023919997,2.5568773e-21
0.8083495,0.22447502,-0.27519913,2.8457284e-22,0.23124231,-0.024472629,6.5615176e-22
0.82157594,0.22636549,-0.2718423,-3.0004232e-22,0.24618918,-0.025013967,-6.0637584e-22
0.83501482,0.22881725,-0.26813048,-1.3196646e-22,0.26149765,-0.025545232,-3.4182664e-22
0.84866957,0.23183982,-0.26407168,-7.7819148e-23,0.27717024,-0.026065309,-2.5257503e-22
0.86254364,0.2354945,-0.25966917,3.5320568e-22,0.29320848,-0.026572731,1.5792057e-21
0.87664057,0.23981859,-0.25493189,2.9272537e-22,0.30961245,-0.027067884,9.0278726e-22
0.89096393,0.24482728,-0.24987364,-3.7617814e-22,0.32638245,-0.027549787,-2.4290758e-21
0.90551736,0.25052775,-0.24451005,-1.3513342e-22,0.34351868,-0.028017996,-8.631136e-22
0.92030455,0.25692364,-0.23885921,2.0265798e-22,0.36102036,-0.028472511,2.0491011e-21
0.93532926,0.26401628,-0.2329417,2.0200429e-22,0.37888473,-0.028911469,2.5143666e-21
0.94954949,0.27126786,-0.22719896,5.9342644e-23,0.39585857,-0.029305556,3.4863527e-22
0.95059531,0.27180093,-0.22677565,4.8627959e-23,0.39710686,-0.029334556,1.8775115e-22
0.96610656,0.28028251,-0.22035648,-5.8871893e-23,0.41568107,-0.029743672,-5.8435904e-22
0.98186697,0.28950009,-0.21369391,-1.5703472e-22,0.4346011,-0.030138661,3.1770448e-21
0.99788053,0.29948661,-0.20678334,-2.7301559e-22,0.45385989,-0.030518887,5.2158304e-21
1.0141513,0.31023426,-0.19963422,3.3425147e-23,0.47344955,-0.030884312,5.9742881e-22
1.0306834,0.32173099,-0.19226826,-2.1311951e-22,0.49336204,-0.03123478,9.0685458e-22
1.0474811,0.33397081,-0.18470986,-1.3280983e-21,0.51358884,-0.031570235,6.8584257e-21
1.0645486,0.34693769,-0.17698479,-1.6356207e-21,0.53412042,-0.03189071,7.204679e-21
1.0818902,0.36060987,-0.16912247,4.8629985e-22,0.55494632,-0.032196037,-1.1357267e-21
1.0995104,0.37496452,-0.1611544,1.3729718e-21,0.57605462,-0.032485825,-4.3216415e-21
1.1174136,0.3899743,-0.15311285,-3.7102429e-22,0.59743205,-0.032759554,8.2926641e-22
1.1356044,0.40560704,-0.14503122,-1.1634004e-21,0.61906528,-0.033016668,2.5403496e-21
1.1540873,0.42182758,-0.13694366,6.290085e-22,0.64094052,-0.033256546,-9.525015e-22
1.1728672,0.43859753,-0.12888412,1.7646968e-21,0.66304096,-0.033478439,-3.0539195e-21
1.1919487,0.45587506,-0.12088567,-6.2432609e-24,0.68534516,-0.033681442,-6.7410881e-23
1.2113366,0.47361633,-0.11297981,3.1884214e-23,0.70782861,-0.033864604,3.558989e-23
1.231036,0.49177679,-0.10519547,2.5491257e-22,0.73046475,-0.034026903,-3.6186112e-22
1.2510519,0.51031243,-0.097558218,-7.1108745e-22,0.75322466,-0.034167228,7.433203e-22
1.2713892,0.52918106,-0.090089773,9.2859474e-22,0.77607847,-0.034284986,-7.8367856e-22
1.2920532,0.54834287,-0.082807731,2.0751538e-21,0.79899677,-0.034379578,-1.8276832e-21
1.3130491,0.5677603,-0.075725567,-7.9425e-22,0.8219487,-0.034450481,5.7508641e-22
1.3343823,0.5873987,-0.068852536,-2.7552817e-21,0.84489706,-0.034497299,1.9475257e-21
1.3560581,0.6072265,-0.062193975,-3.2461295e-21,0.8678036,-0.03451955,2.0263485e-21
1.3780821,0.62721373,-0.055752063,-6.2271352e-21,0.89063739,-0.034517293,3.5372049e-21
1.4004599,0.6473297,-0.049526774,-3.6095047e-21,0.91336886,-0.034491222,2.058179e-21
1.4231971,0.66753643,-0.04351675,1.448731e-21,0.9359662,-0.034441376,-7.2822748e-22
1.4462995,0.68777359,-0.037719322,-2.6117906e-21,0.958394,-0.034367212,1.1574846e-21
1.469773,0.70793958,-0.032124409,-2.8881209e-21,0.98060031,-0.034267784,1.3094746e-21
1.4890744,0.72410285,-0.027739345,1.8579853e-21,0.9983339,-0.034167414,-6.9205989e-22
1.4936235,0.72791432,-0.026705431,2.9197357e-21,1.0025134,-0.034143738,-1.1394853e-21
1.5178572,0.74772884,-0.02143301,4.8964541e-21,1.0240315,-0.033998888,-1.8593656e-21
1.5420908,0.76760781,-0.01631417,3.399042e-21,1.044981,-0.033837997,-1.1928807e-21
1.5659413,0.78762621,-0.011387142,1.2961131e-21,1.0651596,-0.033666342,-4.0173887e-22
1.5894148,0.8075169,-0.0067029297,4.0387913e-21,1.0844381,-0.033488351,-1.1570131e-21
1.6125172,0.82694303,-0.0022898577,-1.1607589e-22,1.1027704,-0.033306396,-6.3088519e-23
1.6352544,0.84572883,0.0018493123,1.0846696e-21,1.1201582,-0.033122019,-2.2467921e-22
1.6576322,0.86383046,0.0057244447,6.1940924e-21,1.1366242,-0.032936409,-1.5582088e-21
1.6796562,0.88124821,0.0093523598,1.1734912e-21,1.1521974,-0.032750589,-2.959307e-22
1.701332,0.89799199,0.012750083,1.0783913e-21,1.1669102,-0.032565397,-2.4530897e-22
1.7226652,0.91407696,0.015933022,-1.6219477e-21,1.1807987,-0.032381379,3.1553704e-22
1.7436611,0.92951306,0.018915836,1.2502373e-22,1.1938993,-0.032199147,-1.0126034e-23
1.7643251,0.94430866,0.021712215,1.4452952e-21,1.2062492,-0.032019248,-2.8990072e-22
1.7846624,0.95847779,0.024334543,-1.3547735e-21,1.2178901,-0.031842015,2.4835311e-22
1.8046783,0.97203181,0.026794998,1.2150186e-21,1.2288643,-0.031667522,-2.1218856e-22
1.8243777,0.98498109,0.029104195,1.9210896e-21,1.2392098,-0.031495558,-3.234899e-22
1.8437657,0.99733867,0.031271817,4.050084e-22,1.2489604,-0.031325793,-6.4648711e-23
1.8628472,1.0091155,0.033307143,7.988772e-22,1.2581459,-0.031157887,-1.1977896e-22
1.881627,1.0203231,0.035218324,4.8668215e-22,1.2667913,-0.03099156,-8.4557402e-23
1.90011,1.0309732,0.037013031,-2.1548194e-22,1.274917,-0.030826496,3.2149293e-23
1.9183007,1.0410768,0.038698304,1.3973666e-21,1.2825402,-0.030662219,-1.7379072e-22
1.9362039,1.0506453,0.040280506,-6.2931108e-22,1.2896743,-0.030498191,8.5980152e-23
1.9538241,1.0596894,0.041765601,-4.6181427e-21,1.29633,-0.030333859,6.1449624e-22
1.9711657,1.0682198,0.04315902,-4.9972756e-22,1.3025155,-0.030168732,8.1278047e-23
1.9882332,1.0762469,0.044465812,4.3827768e-21,1.3082378,-0.030002388,-5.6153143e-22
2.0050309,1.0837811,0.045690609,7.5747021e-22,1.3135032,-0.029834438,-1.0693382e-22
2.0163387,1.0886037,0.046475644,-1.6823362e-21,1.3167966,-0.029718236,1.9263936e-22
2.021563,1.090833,0.046837908,-2.8275259e-21,1.3183182,-0.029664502,3.3388295e-22
2.0378338,1.0974133,0.047911847,-1.4942302e-21,1.3226904,-0.029492114,1.5696172e-22
2.0538473,1.1035304,0.048915663,1.2533901e-21,1.3266294,-0.029316511,-1.6221707e-22
2.0696077,1.1091946,0.049852839,3.0009179e-21,1.3301437,-0.02913701,-3.3324698e-22
2.085119,1.1144158,0.050726642,2.8204957e-22,1.3332384,-0.028953674,-2.3658178e-23
2.100385,1.1192046,0.051540168,-1.5660731e-21,1.335919,-0.028766565,1.5850386e-22
2.1154098,1.1235711,0.052296332,-1.34117e-21,1.3381934,-0.028575372,1.1296958e-22
2.130197,1.1275257,0.052997893,-5.0920109e-22,1.3400702,-0.02837985,4.360565e-23
2.1447504,1.131078,0.053647425,6.8435164e-22,1.3415583,-0.028179828,-4.8022588e-23
2.1590737,1.1342371,0.054247277,2.9789179e-22,1.3426657,-0.027975153,-2.3741991e-23
2.1731707,1.1370112,0.054799601,8.6421146e-22,1.3433995,-0.027765659,-3.1372351e-23
2.1870447,1.1394066,0.055306211,1.4168928e-21,1.3437658,-0.027551139,-4.4849956e-23
2.2006995,1.1414264,0.055768717,-6.912327e-23,1.3437702,-0.027331166,-1.2837216e-23
2.2141384,1.1430673,0.05618795,-1.3172182e-21,1.3434183,-0.027105502,2.3164255e-24
2.2273648,1.1443191,0.056564481,-6.3930124e-22,1.3427149,-0.026874139,-6.0739295e-24
2.2403822,1.1451719,0.056896959,-1.8330291e-22,1.341662,-0.02663694,-9.8182647e-24
2.2531937,1.1456606,0.057188143,4.6461448e-22,1.3402628,-0.026394123,3.6313101e-23
2.2658027,1.1458583,0.057445774,1.0379548e-21,1.3385251,-0.026145833,7.6131987e-23
2.2782124,1.1457912,0.05767563,-1.1111346e-22,1.3364572,-0.025891911,-1.8116624e-23
2.290426,1.1454398,0.057877177,1.6793143e-22,1.3340668,-0.02563234,2.8792946e-23
2.3024464,1.1447875,0.058047382,1.1579762e-21,1.3313609,-0.025367266,1.3126552e-22
2.3142768,1.1438248,0.058186218,1.1599403e-21,1.3283473,-0.025096858,1.4139638e-22