/*--------------------------------*- C++ -*----------------------------------*\
| =========                 |                                                 |
| \\      /  F ield         | OpenFOAM: The Open Source CFD Toolbox           |
|  \\    /   O peration     | Version:  2.4.0                                 |
|   \\  /    A nd           | Web:      www.OpenFOAM.org                      |
|    \\/     M anipulation  |                                                 |
\*---------------------------------------------------------------------------*/
FoamFile
{
    version     2.0;
    format      ascii;
    class       volScalarField;
    location    "320";
    object      k;
}
// * * * * * * * * * * * * * * * * * * * * * * * * * * * * * * * * * * * * * //

dimensions      [0 2 -2 0 0 0 0];

internalField   nonuniform List<scalar> 
78300
(
8.250315e-07
4.4454959e-07
1.2852668e-06
7.9089849e-07
9.9131205e-07
3.3981546e-07
1.5537043e-07
9.3797071e-09
6.89098e-08
1.8074134e-07
1.3378753e-07
1.1347427e-07
6.6834482e-08
5.4853498e-08
3.8002717e-08
3.4520953e-08
2.7348397e-08
2.589849e-08
2.1788423e-08
2.024176e-08
1.712532e-08
1.5458778e-08
1.3248377e-08
1.2118521e-08
1.1019179e-08
1.045238e-08
9.964606e-09
9.8696886e-09
9.8967164e-09
1.02857e-08
1.0864846e-08
1.1822933e-08
1.3058883e-08
1.4712021e-08
1.6699814e-08
1.9035562e-08
2.1432213e-08
2.3884855e-08
2.63988e-08
2.8891826e-08
3.1318313e-08
3.3558512e-08
3.5545229e-08
3.7122002e-08
3.8250593e-08
3.8765987e-08
3.880041e-08
3.8420986e-08
3.7786153e-08
3.7435767e-08
3.6561216e-08
3.5679621e-08
3.4482576e-08
3.2397713e-08
3.063316e-08
2.8264962e-08
2.5828869e-08
2.2492337e-08
2.0439701e-08
1.7253489e-08
1.6923336e-08
1.5552704e-08
2.2790509e-08
4.1460151e-08
5.7275557e-08
7.6340794e-08
9.3565545e-08
1.1174519e-07
1.2891198e-07
1.4679942e-07
1.6337161e-07
1.8024321e-07
1.9609995e-07
2.1205406e-07
2.272628e-07
2.4246212e-07
2.5709313e-07
2.7158035e-07
2.855152e-07
3.0062871e-07
3.1411611e-07
3.2738335e-07
3.4031533e-07
3.5300311e-07
3.6533257e-07
3.7735822e-07
3.8899301e-07
4.0026421e-07
4.11109e-07
4.2154939e-07
4.3152495e-07
4.4088352e-07
4.4779746e-07
4.5632718e-07
4.6430401e-07
4.7158399e-07
4.7800645e-07
4.8615566e-07
4.9147031e-07
4.9612413e-07
5.0027885e-07
5.0395123e-07
5.0732454e-07
5.1052555e-07
5.1385475e-07
5.1699008e-07
5.1623269e-07
5.150968e-07
5.1304725e-07
5.0986467e-07
5.05883e-07
5.0112054e-07
4.9565619e-07
4.8950277e-07
4.8271133e-07
4.7530239e-07
4.6732068e-07
4.5879392e-07
4.4976518e-07
4.4026712e-07
4.3034283e-07
4.2002828e-07
4.0936675e-07
3.9839537e-07
3.8715783e-07
3.756915e-07
3.6403921e-07
3.5223619e-07
3.4032343e-07
3.2833508e-07
3.1631005e-07
3.0428053e-07
2.9228253e-07
2.8034628e-07
2.6850355e-07
2.5678121e-07
2.4520599e-07
2.338017e-07
2.2259068e-07
2.1159424e-07
2.0083074e-07
1.9031909e-07
1.8007414e-07
1.7011194e-07
1.6044381e-07
1.5108186e-07
1.4203393e-07
1.3330767e-07
1.2490707e-07
1.1683576e-07
1.0909494e-07
1.0168607e-07
9.4607659e-08
8.7859452e-08
8.1437155e-08
7.533953e-08
6.9559521e-08
6.4094585e-08
5.8935205e-08
5.4078074e-08
4.9511821e-08
4.5233149e-08
4.1229757e-08
3.7496519e-08
3.4018807e-08
3.0790554e-08
2.7797098e-08
2.5033957e-08
2.2485685e-08
2.0148361e-08
1.8004541e-08
1.6050894e-08
1.4268914e-08
1.2657392e-08
1.1196908e-08
9.8880894e-09
8.7096995e-09
7.6641104e-09
6.7283133e-09
5.9069656e-09
5.1756379e-09
4.5415289e-09
3.978892e-09
3.4975451e-09
3.0707249e-09
2.7111057e-09
2.3911025e-09
2.1263556e-09
1.8884081e-09
1.6961167e-09
1.5199543e-09
1.3825866e-09
1.4561429e-09
1.5260278e-09
1.6073679e-09
1.6496066e-09
1.7073271e-09
1.7082074e-09
1.7317776e-09
1.6784222e-09
1.6578556e-09
1.5405367e-09
1.4687768e-09
1.2862377e-09
1.160949e-09
1.0239061e-09
1.1258766e-09
1.5172572e-09
1.9298404e-09
2.0853491e-09
2.3391826e-09
2.3262232e-09
2.4075019e-09
2.2737361e-09
2.1998065e-09
1.9768526e-09
1.7907148e-09
1.526801e-09
1.312981e-09
1.7524778e-09
2.3621956e-09
3.2961563e-09
4.6545759e-09
6.7555992e-09
9.7027561e-09
1.3869954e-08
1.9400387e-08
2.6726734e-08
3.5997406e-08
4.768545e-08
6.1882053e-08
7.9031552e-08
9.9032337e-08
1.2208154e-07
1.4718252e-07
1.7309085e-07
2.0039761e-07
2.2939395e-07
2.5977451e-07
2.9213702e-07
3.2154858e-07
3.5267892e-07
3.8999434e-07
4.3476069e-07
4.8934859e-07
5.5452632e-07
6.3722257e-07
7.4385109e-07
8.9684284e-07
1.07894e-06
1.3174756e-06
1.5944229e-06
1.965592e-06
2.3936981e-06
2.991043e-06
3.6859287e-06
4.6952144e-06
5.814539e-06
7.4470215e-06
8.9468795e-06
1.0547654e-05
1.0146094e-05
8.7556453e-06
6.2233292e-06
4.4526172e-06
2.3732011e-06
1.67057e-06
6.3291618e-07
7.1834922e-07
1.734432e-07
6.4345719e-07
2.3649473e-07
8.205616e-07
2.7181026e-07
1.4587667e-07
1.2359939e-07
8.1129623e-08
3.4717282e-08
1.0180029e-08
3.3756007e-08
2.3936449e-08
1.9346042e-08
1.1389788e-08
9.1292731e-09
6.4002343e-09
5.7816954e-09
4.6516374e-09
4.4050725e-09
3.7686719e-09
3.5222682e-09
3.0414269e-09
2.7797912e-09
2.4401824e-09
2.2689407e-09
2.1112373e-09
2.040367e-09
1.9884051e-09
2.0028652e-09
2.0438661e-09
2.1487495e-09
2.2932029e-09
2.5073047e-09
2.7779118e-09
3.1279425e-09
3.5469262e-09
4.0374865e-09
4.5545528e-09
5.0962059e-09
5.6658828e-09
6.2522426e-09
6.8483391e-09
7.4346158e-09
7.9972412e-09
8.5046114e-09
8.935075e-09
9.2265767e-09
9.3934339e-09
1.4571264e-08
5.824105e-09
1.5638892e-08
5.9551284e-09
1.6892804e-08
1.7520469e-08
5.9488416e-09
5.9497773e-09
1.9637307e-08
1.1513227e-08
1.1264237e-08
1.1063257e-08
1.0553863e-08
1.0384922e-08
9.9998894e-09
1.0933976e-08
8.4017867e-09
1.1112904e-08
3.7292668e-08
4.3001744e-08
1.9815911e-08
2.2595951e-08
2.5483306e-08
2.8195514e-08
3.0944286e-08
3.3560058e-08
3.6190533e-08
3.8728869e-08
4.1275006e-08
4.3759729e-08
4.6247281e-08
4.9023258e-08
1.1954487e-07
1.2502017e-07
1.3041694e-07
1.3576932e-07
1.4108791e-07
1.4635093e-07
1.5156329e-07
1.567083e-07
1.6179391e-07
1.6683503e-07
1.7191596e-07
1.7709916e-07
1.7841916e-07
7.7381114e-08
7.9026289e-08
8.0684767e-08
8.2295168e-08
8.4573023e-08
2.0809656e-07
2.1226241e-07
2.1627954e-07
2.2036759e-07
2.2467692e-07
2.295359e-07
2.3560129e-07
2.4433952e-07
2.5661915e-07
1.6139473e-07
1.6260206e-07
1.6343957e-07
1.6402087e-07
1.6440317e-07
1.6459863e-07
1.6462015e-07
1.6447048e-07
1.6415702e-07
1.636829e-07
1.6305467e-07
1.6227662e-07
1.613554e-07
1.6029626e-07
1.5910618e-07
1.5779118e-07
1.5635862e-07
1.5481496e-07
1.5316795e-07
1.5142437e-07
1.4959214e-07
1.4767792e-07
1.4568954e-07
1.4363366e-07
1.4151802e-07
1.3934915e-07
1.3713454e-07
1.348806e-07
1.3259436e-07
1.3028175e-07
1.2794911e-07
1.2560188e-07
1.2324573e-07
1.2088568e-07
1.1852683e-07
1.1617385e-07
1.1383138e-07
1.1150368e-07
1.0919492e-07
1.0690886e-07
1.0464913e-07
1.0241881e-07
1.0022086e-07
9.8057565e-08
9.5931273e-08
9.3843807e-08
9.1797023e-08
8.9792422e-08
8.7831307e-08
8.591495e-08
8.404415e-08
8.2219908e-08
8.044242e-08
7.871246e-08
7.7029685e-08
7.5394931e-08
7.3807382e-08
7.2268078e-08
7.0775535e-08
6.9329888e-08
6.7929366e-08
6.6574263e-08
6.5262576e-08
6.3995038e-08
6.2769034e-08
6.1585321e-08
6.0440457e-08
5.9335636e-08
5.8266869e-08
5.723617e-08
5.6238588e-08
5.5276631e-08
5.4343895e-08
5.344355e-08
5.2567737e-08
5.1720691e-08
5.0893226e-08
5.0090795e-08
4.9302664e-08
4.8535683e-08
4.7777258e-08
4.7036136e-08
4.6297318e-08
4.5571753e-08
4.4841153e-08
4.4119386e-08
4.3413925e-08
4.2706902e-08
4.1977663e-08
4.123692e-08
4.0463325e-08
3.9670391e-08
3.8836792e-08
3.7980083e-08
3.7062454e-08
3.6096905e-08
3.5044256e-08
3.3915304e-08
3.2657273e-08
3.126727e-08
2.9564947e-08
2.8055613e-08
2.8252108e-08
2.9072538e-08
3.0193656e-08
3.1422688e-08
3.2767422e-08
3.4174743e-08
3.5631951e-08
3.7142504e-08
3.8686777e-08
4.028622e-08
4.1931688e-08
4.3752593e-08
4.5678474e-08
4.7798731e-08
5.0216504e-08
5.2945796e-08
5.592023e-08
5.9179999e-08
6.2723493e-08
6.6604764e-08
7.0830721e-08
7.5452862e-08
8.0458107e-08
8.5877826e-08
9.1644382e-08
9.7680725e-08
1.0360352e-07
1.0925212e-07
1.1488841e-07
1.206076e-07
1.2653746e-07
1.3115157e-07
5.1034249e-08
5.3772751e-08
5.7512702e-08
6.2755971e-08
6.9499118e-08
7.772675e-08
8.8301445e-08
1.0210192e-07
1.2203542e-07
1.4584763e-07
1.7707193e-07
2.131105e-07
2.5909777e-07
3.1358325e-07
3.9053444e-07
4.806975e-07
6.141574e-07
9.9014248e-07
1.3594943e-06
1.6862316e-06
1.9932197e-06
1.9486054e-06
1.7218459e-06
1.3012327e-06
6.2405376e-07
3.3595238e-07
2.3592808e-07
9.6743157e-08
1.059094e-07
1.2791929e-07
3.2691111e-06
1.2700232e-06
3.9276251e-06
1.1699594e-06
1.5555257e-07
5.5345146e-07
4.3269104e-07
2.4408866e-07
1.1438452e-08
5.3627583e-08
3.1724241e-08
2.0066016e-08
1.1731186e-08
8.1117119e-09
6.1499015e-09
5.3776767e-09
4.7645801e-09
4.5198175e-09
4.2442635e-09
4.0948959e-09
3.898035e-09
3.7641034e-09
3.636583e-09
3.5907519e-09
3.6075445e-09
3.691286e-09
3.8271973e-09
4.029251e-09
4.2936845e-09
4.6381699e-09
5.0672472e-09
5.5998107e-09
6.246715e-09
7.026905e-09
7.9508655e-09
9.022915e-09
1.0219467e-08
1.1532903e-08
1.2981749e-08
1.4570275e-08
1.6296327e-08
1.8144883e-08
2.0087413e-08
2.2062055e-08
2.395635e-08
2.55059e-08
2.6656676e-08
5.425256e-08
7.7529684e-09
6.2405117e-08
9.9274875e-09
7.2629401e-08
7.7743614e-08
1.3798674e-08
1.5795518e-08
9.8577395e-08
5.7469251e-08
5.9154906e-08
5.9808815e-08
5.9376898e-08
5.8484193e-08
5.7082318e-08
5.6446105e-08
2.3858329e-08
2.9117115e-08
1.6349073e-07
1.8292324e-07
4.2524032e-08
4.6965806e-08
5.1568051e-08
5.6119058e-08
6.0656307e-08
6.5170656e-08
6.9702371e-08
7.4260148e-08
7.8887535e-08
8.36028e-08
8.8483142e-08
9.607647e-08
4.658966e-07
4.8757628e-07
5.0892816e-07
5.3033966e-07
5.5178517e-07
5.7324153e-07
5.9468397e-07
6.1609448e-07
6.3749643e-07
6.5905228e-07
6.8128856e-07
7.0468473e-07
7.0431794e-07
1.5472305e-07
1.5889659e-07
1.6381601e-07
1.6906179e-07
1.8029857e-07
8.4974305e-07
8.7138246e-07
8.927137e-07
9.1502763e-07
9.3928681e-07
9.6744106e-07
1.0036405e-06
1.0571453e-06
1.134635e-06
6.4716684e-07
6.5714678e-07
6.65387e-07
6.7292408e-07
6.798312e-07
6.8617831e-07
6.9197829e-07
6.972379e-07
7.019587e-07
7.0614218e-07
7.0979025e-07
7.1290558e-07
7.1549227e-07
7.1755507e-07
7.1910043e-07
7.2013535e-07
7.2066883e-07
7.2070989e-07
7.2026997e-07
7.1936015e-07
7.1799404e-07
7.1618409e-07
7.1394508e-07
7.112906e-07
7.0823692e-07
7.047986e-07
7.0099331e-07
6.968366e-07
6.9234716e-07
6.8754056e-07
6.8243558e-07
6.7704736e-07
6.7139435e-07
6.6549126e-07
6.593564e-07
6.5300442e-07
6.4645383e-07
6.3971932e-07
6.3281969e-07
6.257698e-07
6.185882e-07
6.1128956e-07
6.0389133e-07
5.9640644e-07
5.888509e-07
5.8123647e-07
5.7357834e-07
5.6588765e-07
5.5817842e-07
5.5046126e-07
5.4274921e-07
5.3505231e-07
5.2738174e-07
5.1974663e-07
5.121562e-07
5.0461994e-07
4.9714465e-07
4.8974315e-07
4.8241973e-07
4.7518165e-07
4.6803108e-07
4.6097482e-07
4.5401415e-07
4.4715851e-07
4.4040676e-07
4.3376789e-07
4.2723583e-07
4.2082058e-07
4.1451301e-07
4.083272e-07
4.0224888e-07
3.9629395e-07
3.9043932e-07
3.847034e-07
3.7905389e-07
3.7351439e-07
3.6804425e-07
3.6267327e-07
3.5735055e-07
3.5211312e-07
3.4689734e-07
3.4175105e-07
3.3659396e-07
3.3148667e-07
3.263259e-07
3.211897e-07
3.1595486e-07
3.1071256e-07
3.0529599e-07
2.9983575e-07
2.9411928e-07
2.8832016e-07
2.8220022e-07
2.7599081e-07
2.6930198e-07
2.6236278e-07
2.5473969e-07
2.466732e-07
2.3760393e-07
2.2758256e-07
2.1504185e-07
2.0363478e-07
2.0467208e-07
2.1051747e-07
2.1846191e-07
2.2747223e-07
2.3723228e-07
2.4767266e-07
2.5841647e-07
2.6970451e-07
2.8120162e-07
2.9318306e-07
3.0544819e-07
3.1832252e-07
3.317913e-07
3.4634917e-07
3.6264111e-07
3.8043686e-07
3.9914761e-07
4.1868157e-07
4.3887695e-07
4.5968629e-07
4.8100509e-07
5.027209e-07
5.2464332e-07
5.4654508e-07
5.6803585e-07
5.8834134e-07
6.0570411e-07
6.2024572e-07
6.3326045e-07
6.4514012e-07
6.5702311e-07
6.6134518e-07
8.0476313e-08
6.8051185e-08
6.1548093e-08
5.8978379e-08
5.8274774e-08
5.870857e-08
6.0274849e-08
6.344686e-08
6.8933616e-08
7.6102056e-08
8.5790832e-08
9.6763225e-08
1.0466071e-07
1.1873899e-07
1.4098801e-07
1.6954176e-07
2.1974595e-07
1.0169023e-06
1.9579647e-06
2.7292306e-06
3.2588401e-06
3.3603532e-06
3.187268e-06
2.8181279e-06
4.7250274e-07
2.7413148e-07
1.8836578e-07
1.2580579e-07
1.1401388e-07
7.5619853e-07
1.006804e-05
4.6972312e-06
1.2048689e-05
4.2695805e-06
5.0900718e-07
2.0301639e-06
1.6015276e-06
9.1509913e-07
3.7191861e-08
1.726491e-07
9.7421137e-08
5.7272685e-08
3.3397773e-08
2.1787164e-08
1.7044113e-08
1.4709877e-08
1.351672e-08
1.2830272e-08
1.2427454e-08
1.2108345e-08
1.1848206e-08
1.1604045e-08
1.1464296e-08
1.1464432e-08
1.1690747e-08
1.2085016e-08
1.2660252e-08
1.3421157e-08
1.4394324e-08
1.5609153e-08
1.7108116e-08
1.8932782e-08
2.1138413e-08
2.3774187e-08
2.6891273e-08
3.0503921e-08
3.4568541e-08
3.9057657e-08
4.4038418e-08
4.9539267e-08
5.5559423e-08
6.2061773e-08
6.8951727e-08
7.6025447e-08
8.2876206e-08
8.8568885e-08
9.2861161e-08
1.6671307e-07
2.7364611e-08
1.9386786e-07
3.6548831e-08
2.2801043e-07
2.446041e-07
5.2695443e-08
6.1998102e-08
3.1510792e-07
2.1176661e-07
2.1877367e-07
2.2153608e-07
2.2038525e-07
2.1708546e-07
2.1202334e-07
2.0862919e-07
9.36784e-08
1.1348135e-07
5.1873477e-07
5.7965561e-07
1.6238615e-07
1.7850942e-07
1.9535065e-07
2.121444e-07
2.2884457e-07
2.4557707e-07
2.6237006e-07
2.7936436e-07
2.9664788e-07
3.1436515e-07
3.3281122e-07
3.6300698e-07
1.4641087e-06
1.5322334e-06
1.5994135e-06
1.6668432e-06
1.7344245e-06
1.8021011e-06
1.8697835e-06
1.9374279e-06
2.0051055e-06
2.073355e-06
2.1438845e-06
2.2183275e-06
2.2196069e-06
5.8577154e-07
6.0168412e-07
6.2107859e-07
6.4200641e-07
6.8909256e-07
2.6809091e-06
2.7501022e-06
2.8186707e-06
2.8905194e-06
2.9687751e-06
3.0597453e-06
3.1769004e-06
3.3503459e-06
3.6056424e-06
2.3530843e-06
2.3907226e-06
2.4219369e-06
2.4506805e-06
2.4771778e-06
2.5016882e-06
2.5242483e-06
2.5448815e-06
2.5635863e-06
2.5803652e-06
2.5952189e-06
2.6081534e-06
2.6191778e-06
2.628305e-06
2.6355531e-06
2.640943e-06
2.6445021e-06
2.6462591e-06
2.6462502e-06
2.6445117e-06
2.6410884e-06
2.6360217e-06
2.6293613e-06
2.6211531e-06
2.6114524e-06
2.6003092e-06
2.5877845e-06
2.5739322e-06
2.5588178e-06
2.5424958e-06
2.5250326e-06
2.5064818e-06
2.4869092e-06
2.4663668e-06
2.4449208e-06
2.4226232e-06
2.3995414e-06
2.3757281e-06
2.3512522e-06
2.3261676e-06
2.300543e-06
2.2744319e-06
2.2478996e-06
2.2209938e-06
2.1937745e-06
2.1662856e-06
2.1385842e-06
2.1107124e-06
2.0827231e-06
2.0546565e-06
2.0265626e-06
1.9984792e-06
1.9704498e-06
1.9425091e-06
1.9146934e-06
1.8870389e-06
1.8595726e-06
1.8323436e-06
1.80537e-06
1.7786801e-06
1.7522841e-06
1.7262081e-06
1.7004593e-06
1.6750736e-06
1.6500493e-06
1.6254207e-06
1.6011677e-06
1.5773279e-06
1.55387e-06
1.5308468e-06
1.5082079e-06
1.4860124e-06
1.4641772e-06
1.4427707e-06
1.4216753e-06
1.4009785e-06
1.3805315e-06
1.3604447e-06
1.3405309e-06
1.3209275e-06
1.3013996e-06
1.2821244e-06
1.2628048e-06
1.2436655e-06
1.2243233e-06
1.2050676e-06
1.1854112e-06
1.1657275e-06
1.1453884e-06
1.1248913e-06
1.1034307e-06
1.0816684e-06
1.0586987e-06
1.0354049e-06
1.0103067e-06
9.8428384e-07
9.5568821e-07
9.2544577e-07
8.9143256e-07
8.5385132e-07
8.0682782e-07
7.6410547e-07
7.6804777e-07
7.8998772e-07
8.1979649e-07
8.5364912e-07
8.9030417e-07
9.2954645e-07
9.6992006e-07
1.0123607e-06
1.0555814e-06
1.1006335e-06
1.1467449e-06
1.1950514e-06
1.2455721e-06
1.3001445e-06
1.3611551e-06
1.4276726e-06
1.4974859e-06
1.5702065e-06
1.6452006e-06
1.7222296e-06
1.8008798e-06
1.8806556e-06
1.9608283e-06
2.0404818e-06
2.1181531e-06
2.1908961e-06
2.2523069e-06
2.3030634e-06
2.3479127e-06
2.3882717e-06
2.4280179e-06
2.4497194e-06
2.882081e-07
2.2422908e-07
1.9558239e-07
1.8085058e-07
1.7202502e-07
1.6643279e-07
1.6343919e-07
1.6408028e-07
1.6870607e-07
1.7681859e-07
1.8893739e-07
2.0334965e-07
1.9868402e-07
2.1032815e-07
2.3693396e-07
2.7815408e-07
3.5427034e-07
2.8716807e-06
6.1277552e-06
8.7526435e-06
1.0466182e-05
1.090027e-05
1.04683e-05
9.4921262e-06
1.4190524e-06
8.2575582e-07
5.6018388e-07
4.2633432e-07
3.7029889e-07
2.812809e-06
2.2011676e-05
1.2510984e-05
2.6332077e-05
1.1351947e-05
1.4780721e-06
5.4210192e-06
4.2751835e-06
2.4483838e-06
1.0507642e-07
4.5284845e-07
2.5314564e-07
1.4739138e-07
8.5928415e-08
5.5551756e-08
4.362704e-08
3.7566565e-08
3.4694759e-08
3.2933198e-08
3.2036398e-08
3.1256459e-08
3.0698356e-08
3.0121887e-08
2.9843258e-08
2.9888586e-08
3.0531019e-08
3.1596854e-08
3.3138969e-08
3.5156578e-08
3.7731305e-08
4.093089e-08
4.4874999e-08
4.9665799e-08
5.5453887e-08
6.2363775e-08
7.0534838e-08
8.0005581e-08
9.0673864e-08
1.0246626e-07
1.1555945e-07
1.3003303e-07
1.4588769e-07
1.6303124e-07
1.812178e-07
1.9991721e-07
2.1806159e-07
2.3322518e-07
2.4451988e-07
3.7569154e-07
8.1518198e-08
4.3997723e-07
1.093507e-07
5.2065357e-07
5.5986308e-07
1.5725427e-07
1.8685545e-07
7.2796264e-07
5.6458599e-07
5.8385022e-07
5.9133842e-07
5.8840932e-07
5.7961567e-07
5.6615315e-07
5.5700549e-07
2.8062566e-07
3.3977332e-07
1.201932e-06
1.3444841e-06
4.8566375e-07
5.3347961e-07
5.8365514e-07
6.3372833e-07
6.8351288e-07
7.3342636e-07
7.835205e-07
8.3424303e-07
8.858335e-07
9.3874084e-07
9.9394378e-07
1.0851092e-06
3.3870567e-06
3.5439565e-06
3.6993602e-06
3.8553617e-06
4.0117287e-06
4.1683376e-06
4.324977e-06
4.4815499e-06
4.6382205e-06
4.7962429e-06
4.9595863e-06
5.1323099e-06
5.1489611e-06
1.7510113e-06
1.7982455e-06
1.8563941e-06
1.9194951e-06
2.062854e-06
6.2055734e-06
6.364752e-06
6.5238799e-06
6.69066e-06
6.8723553e-06
7.0836055e-06
7.3556803e-06
7.7586336e-06
8.3646656e-06
6.2654875e-06
6.3665137e-06
6.449974e-06
6.5268875e-06
6.5978368e-06
6.663511e-06
6.7240049e-06
6.7793804e-06
6.8296308e-06
6.8747625e-06
6.9147752e-06
6.9496839e-06
6.9795109e-06
7.0042898e-06
7.0240666e-06
7.0388962e-06
7.0488496e-06
7.054002e-06
7.0544482e-06
7.0502839e-06
7.0416265e-06
7.0285857e-06
7.0112919e-06
6.9898665e-06
6.9644561e-06
6.935192e-06
6.902236e-06
6.8657311e-06
6.8258504e-06
6.7827389e-06
6.7365722e-06
6.6874927e-06
6.6356753e-06
6.5812579e-06
6.5244163e-06
6.465289e-06
6.4040552e-06
6.3408551e-06
6.2758721e-06
6.2092498e-06
6.1411709e-06
6.0717786e-06
6.0012466e-06
5.9297026e-06
5.8573065e-06
5.7841755e-06
5.7104624e-06
5.6362794e-06
5.5617681e-06
5.4870362e-06
5.4122169e-06
5.3374119e-06
5.2627377e-06
5.1882872e-06
5.1141574e-06
5.0404454e-06
4.9672243e-06
4.8946249e-06
4.8226966e-06
4.751515e-06
4.6811079e-06
4.6115456e-06
4.5428479e-06
4.4751108e-06
4.4083306e-06
4.342599e-06
4.2778631e-06
4.214224e-06
4.1515984e-06
4.0901274e-06
4.0296771e-06
3.9704063e-06
3.9120931e-06
3.8549202e-06
3.7985748e-06
3.7432901e-06
3.6886698e-06
3.6350085e-06
3.5818074e-06
3.5294327e-06
3.477258e-06
3.4257566e-06
3.3741354e-06
3.3229945e-06
3.2713111e-06
3.2198577e-06
3.1673253e-06
3.1147211e-06
3.0603655e-06
3.0055905e-06
2.9482406e-06
2.8900879e-06
2.828708e-06
2.7664654e-06
2.6993985e-06
2.6298672e-06
2.5534603e-06
2.4726609e-06
2.3817851e-06
2.2813854e-06
2.1558762e-06
2.0420939e-06
2.0529078e-06
2.1115991e-06
2.1913301e-06
2.2818916e-06
2.3799412e-06
2.4849183e-06
2.5929222e-06
2.7064609e-06
2.8220869e-06
2.9426161e-06
3.0659772e-06
3.1951907e-06
3.3303352e-06
3.4763243e-06
3.6394745e-06
3.8172337e-06
4.0037297e-06
4.1979265e-06
4.3981174e-06
4.6036643e-06
4.8134408e-06
5.0260945e-06
5.2396702e-06
5.4517016e-06
5.6582784e-06
5.8514635e-06
6.0143027e-06
6.1487901e-06
6.2675144e-06
6.3742033e-06
6.47794e-06
6.5479853e-06
8.426859e-07
6.3029857e-07
5.4742022e-07
5.0329147e-07
4.7525086e-07
4.5607855e-07
4.4402704e-07
4.4167346e-07
4.4959802e-07
4.6707392e-07
4.9531075e-07
5.3063858e-07
5.0544848e-07
5.2685338e-07
5.9129404e-07
6.9770788e-07
8.7218236e-07
7.3607978e-06
1.5942778e-05
2.2823915e-05
2.7279569e-05
2.8441716e-05
2.7354349e-05
2.4890134e-05
4.1861656e-06
2.3792758e-06
1.6015569e-06
1.2300286e-06
1.0628546e-06
7.5158127e-06
3.9750796e-05
2.7277561e-05
4.75587e-05
2.4736952e-05
3.6905607e-06
1.1883558e-05
9.3543727e-06
5.3676695e-06
2.558952e-07
9.8685699e-07
5.4987209e-07
3.1966036e-07
1.8637568e-07
1.2022695e-07
9.4417803e-08
8.1238547e-08
7.5083567e-08
7.1265852e-08
6.9378597e-08
6.7708449e-08
6.6546912e-08
6.5321096e-08
6.4748746e-08
6.4859795e-08
6.6267484e-08
6.8588946e-08
7.1945395e-08
7.6329638e-08
8.192328e-08
8.8869503e-08
9.7431222e-08
1.0782739e-07
1.2038717e-07
1.3537922e-07
1.5310882e-07
1.7366237e-07
1.9682555e-07
2.2243678e-07
2.5087784e-07
2.8232502e-07
3.1678236e-07
3.540538e-07
3.9360987e-07
4.343068e-07
4.7384031e-07
5.0702906e-07
5.3105512e-07
7.0689835e-07
2.0412874e-07
8.3358801e-07
2.7336934e-07
9.920011e-07
1.0707524e-06
3.9055862e-07
4.6556281e-07
1.40365e-06
1.2341205e-06
1.2769266e-06
1.2933928e-06
1.28709e-06
1.2679035e-06
1.238537e-06
1.2191501e-06
6.9381974e-07
8.3981765e-07
2.3301908e-06
2.6106173e-06
1.2011889e-06
1.31936e-06
1.4434135e-06
1.5672263e-06
1.6903229e-06
1.8137499e-06
1.9376233e-06
2.063057e-06
2.1906269e-06
2.3214407e-06
2.4581298e-06
2.6814966e-06
6.56258e-06
6.8645458e-06
7.1655418e-06
7.4677026e-06
7.7705783e-06
8.0739324e-06
8.3773538e-06
8.6806573e-06
8.9841596e-06
9.2902896e-06
9.6067382e-06
9.9420747e-06
1.0009314e-05
4.3307075e-06
4.4477805e-06
4.5915823e-06
4.748261e-06
5.0978282e-06
1.2024728e-05
1.2329779e-05
1.2638244e-05
1.2961549e-05
1.331376e-05
1.3723207e-05
1.4250372e-05
1.5031102e-05
1.623455e-05
1.3689741e-05
1.3912081e-05
1.4094552e-05
1.4262751e-05
1.4417937e-05
1.4561611e-05
1.4693977e-05
1.4815168e-05
1.4925171e-05
1.5023997e-05
1.5111646e-05
1.5188149e-05
1.5253555e-05
1.5307936e-05
1.5351392e-05
1.5384042e-05
1.5406041e-05
1.5417551e-05
1.541878e-05
1.5409935e-05
1.5391272e-05
1.5363029e-05
1.5325492e-05
1.5278925e-05
1.5223645e-05
1.5159942e-05
1.5088167e-05
1.5008631e-05
1.4921712e-05
1.4827727e-05
1.4727058e-05
1.4620017e-05
1.4506985e-05
1.4388263e-05
1.4264234e-05
1.4135201e-05
1.4001555e-05
1.3863603e-05
1.3721744e-05
1.3576293e-05
1.3427648e-05
1.3276123e-05
1.3122096e-05
1.2965847e-05
1.2807725e-05
1.2647987e-05
1.2486967e-05
1.2324909e-05
1.2162123e-05
1.1998846e-05
1.1835367e-05
1.1671911e-05
1.1508731e-05
1.1346031e-05
1.1184023e-05
1.102292e-05
1.0862882e-05
1.0704195e-05
1.0546967e-05
1.0391364e-05
1.0237447e-05
1.008537e-05
9.9351768e-06
9.7870775e-06
9.6410644e-06
9.4973384e-06
9.3557844e-06
9.2166231e-06
9.0796737e-06
8.9452448e-06
8.813044e-06
8.6834185e-06
8.5558841e-06
8.4308405e-06
8.3076036e-06
8.1866839e-06
8.0672154e-06
7.9498421e-06
7.833474e-06
7.7189116e-06
7.6047861e-06
7.492132e-06
7.3792161e-06
7.2673504e-06
7.1542988e-06
7.0417502e-06
6.9268401e-06
6.8117743e-06
6.6928804e-06
6.5730715e-06
6.4476341e-06
6.3204429e-06
6.1861935e-06
6.0500585e-06
5.9033685e-06
5.7512964e-06
5.5841893e-06
5.4074855e-06
5.2087485e-06
4.989206e-06
4.7150413e-06
4.4670626e-06
4.4913424e-06
4.6198529e-06
4.7944182e-06
4.9927096e-06
5.2073768e-06
5.4372106e-06
5.6736804e-06
5.9222597e-06
6.1754145e-06
6.4393063e-06
6.7094037e-06
6.9923176e-06
7.2882443e-06
7.6079468e-06
7.9650982e-06
8.3540236e-06
8.7619613e-06
9.1866779e-06
9.6244341e-06
1.0073834e-05
1.0532393e-05
1.0997139e-05
1.14638e-05
1.192694e-05
1.2377981e-05
1.2799458e-05
1.3154601e-05
1.3448085e-05
1.3707263e-05
1.3940186e-05
1.4163637e-05
1.4318261e-05
2.0932253e-06
1.52595e-06
1.3226629e-06
1.212209e-06
1.139701e-06
1.0883385e-06
1.0541959e-06
1.0430936e-06
1.0565782e-06
1.09367e-06
1.1576069e-06
1.2398728e-06
1.1676377e-06
1.2111491e-06
1.3648854e-06
1.6247654e-06
2.0183464e-06
1.6004165e-05
3.4597765e-05
4.9493806e-05
5.9108765e-05
6.1635486e-05
5.929643e-05
5.4003636e-05
1.0632576e-05
5.9354231e-06
3.9704722e-06
3.0485241e-06
2.6280353e-06
1.6469058e-05
6.424707e-05
5.2146452e-05
7.6878438e-05
4.7278477e-05
8.300915e-06
2.2897773e-05
1.7969671e-05
1.0336282e-05
5.6767979e-07
1.8920959e-06
1.0530205e-06
6.1203869e-07
3.5689323e-07
2.299914e-07
1.8049271e-07
1.5521676e-07
1.4345518e-07
1.3614814e-07
1.3256488e-07
1.2938583e-07
1.2719252e-07
1.248636e-07
1.2378187e-07
1.2399104e-07
1.2667559e-07
1.3110584e-07
1.3751477e-07
1.4588534e-07
1.5656619e-07
1.6982871e-07
1.8617649e-07
2.0602624e-07
2.3000788e-07
2.5863416e-07
2.9249083e-07
3.3174839e-07
3.7600568e-07
4.2494997e-07
4.7930613e-07
5.3941518e-07
6.0528918e-07
6.7655912e-07
7.5222067e-07
8.3010224e-07
9.0583449e-07
9.6967533e-07
1.0140867e-06
1.196764e-06
4.5094226e-07
1.4207701e-06
6.0094669e-07
1.6995846e-06
1.8432174e-06
8.5184948e-07
1.013788e-06
2.4336336e-06
2.368168e-06
2.4510656e-06
2.4828023e-06
2.4708697e-06
2.4341751e-06
2.3780265e-06
2.3427964e-06
1.4978169e-06
1.8116762e-06
4.0655621e-06
4.5629863e-06
2.5941912e-06
2.8501437e-06
3.1180785e-06
3.3854864e-06
3.651339e-06
3.9179037e-06
4.1854235e-06
4.4563012e-06
4.7317542e-06
5.0141489e-06
5.3094102e-06
5.7786311e-06
1.1444706e-05
1.196729e-05
1.2491938e-05
1.3018615e-05
1.3546539e-05
1.4075301e-05
1.4604184e-05
1.5132868e-05
1.5661901e-05
1.6195507e-05
1.6747065e-05
1.7332954e-05
1.7519994e-05
9.3505195e-06
9.6058479e-06
9.9160941e-06
1.0254756e-05
1.0977865e-05
2.0968937e-05
2.1494212e-05
2.2032001e-05
2.2595628e-05
2.3209559e-05
2.392303e-05
2.4841018e-05
2.61998e-05
2.8345285e-05
2.6252651e-05
2.6682236e-05
2.7032163e-05
2.7354781e-05
2.7652494e-05
2.7928156e-05
2.8182155e-05
2.8414747e-05
2.8625902e-05
2.8815643e-05
2.8983967e-05
2.9130935e-05
2.9256637e-05
2.9361213e-05
2.9444851e-05
2.950778e-05
2.9550293e-05
2.9572704e-05
2.9575406e-05
2.9558796e-05
2.9523363e-05
2.9469565e-05
2.9397944e-05
2.9309006e-05
2.9203362e-05
2.9081561e-05
2.8944275e-05
2.8792104e-05
2.8625767e-05
2.8445873e-05
2.8253152e-05
2.8048201e-05
2.7831749e-05
2.7604374e-05
2.736681e-05
2.7119637e-05
2.6863603e-05
2.6599295e-05
2.6327481e-05
2.6048761e-05
2.57639e-05
2.5473499e-05
2.5178282e-05
2.4878788e-05
2.4575684e-05
2.4269463e-05
2.3960765e-05
2.365006e-05
2.3337944e-05
2.3024866e-05
2.2711387e-05
2.2397934e-05
2.2084996e-05
2.1772962e-05
2.1462241e-05
2.1153241e-05
2.0846269e-05
2.0541874e-05
2.0240265e-05
1.994176e-05
1.9646478e-05
1.9354712e-05
1.906655e-05
1.8782394e-05
1.8502229e-05
1.8226443e-05
1.7954815e-05
1.7687769e-05
1.7424959e-05
1.7166978e-05
1.6913266e-05
1.6664489e-05
1.641972e-05
1.6179725e-05
1.5943192e-05
1.5711102e-05
1.5481795e-05
1.5256504e-05
1.5033141e-05
1.481324e-05
1.4594178e-05
1.4377937e-05
1.4161197e-05
1.3946472e-05
1.3729472e-05
1.3513437e-05
1.3292875e-05
1.3072015e-05
1.2843816e-05
1.2613864e-05
1.2373119e-05
1.2129009e-05
1.1871357e-05
1.1610083e-05
1.1328547e-05
1.1036696e-05
1.0716e-05
1.0376906e-05
9.9955408e-06
9.5742997e-06
9.0488264e-06
8.5746559e-06
8.6224155e-06
8.8693046e-06
9.2046652e-06
9.5856297e-06
9.998018e-06
1.0439534e-05
1.0893813e-05
1.1371343e-05
1.1857674e-05
1.2364616e-05
1.28835e-05
1.3427019e-05
1.3995588e-05
1.4609896e-05
1.52959e-05
1.6042538e-05
1.6825493e-05
1.7640534e-05
1.8480513e-05
1.9342696e-05
2.0222317e-05
2.1113683e-05
2.2008543e-05
2.2896443e-05
2.3760864e-05
2.4568118e-05
2.5248223e-05
2.581071e-05
2.6307731e-05
2.6754485e-05
2.7177135e-05
2.7436358e-05
4.6769601e-06
3.3587427e-06
2.9081597e-06
2.6597656e-06
2.4927898e-06
2.3714709e-06
2.2877043e-06
2.2536739e-06
2.2731332e-06
2.3452517e-06
2.4775728e-06
2.6510812e-06
2.4764075e-06
2.5563519e-06
2.8861553e-06
3.4553544e-06
4.2849192e-06
3.0917643e-05
6.6158504e-05
9.4464841e-05
0.00011269816
0.0001175198
0.00011308214
0.00010303482
2.4036751e-05
1.3315548e-05
8.8791997e-06
6.8291974e-06
5.8772812e-06
3.17187e-05
9.7166211e-05
9.0900635e-05
0.00011626771
8.241389e-05
1.7257592e-05
4.0332594e-05
3.1514347e-05
1.817993e-05
1.181052e-06
3.3128709e-06
1.8434512e-06
1.0715424e-06
6.2492806e-07
4.0241954e-07
3.1553518e-07
2.7121841e-07
2.506196e-07
2.3783035e-07
2.3157756e-07
2.2603596e-07
2.2222449e-07
2.1816758e-07
2.1627975e-07
2.1662871e-07
2.2129417e-07
2.2901103e-07
2.4018408e-07
2.5478056e-07
2.7340938e-07
2.9654245e-07
3.250594e-07
3.5968632e-07
4.015233e-07
4.5146547e-07
5.1053846e-07
5.7904954e-07
6.5631085e-07
7.4176943e-07
8.3668203e-07
9.4165069e-07
1.0567026e-06
1.1812033e-06
1.3134128e-06
1.4495644e-06
1.5820927e-06
1.6942441e-06
1.7687268e-06
1.8994966e-06
9.0484962e-07
2.2690815e-06
1.197222e-06
2.7267698e-06
2.9722426e-06
1.6827357e-06
1.9925616e-06
3.9474153e-06
4.1477133e-06
4.2934861e-06
4.3493128e-06
4.3287554e-06
4.2648165e-06
4.1670463e-06
4.1100545e-06
2.9177884e-06
3.5248344e-06
6.6362585e-06
7.4621111e-06
5.0545573e-06
5.5557023e-06
6.0777334e-06
6.5986911e-06
7.116585e-06
7.6358383e-06
8.1569159e-06
8.6844869e-06
9.2208689e-06
9.7705947e-06
1.0345127e-05
1.1220455e-05
1.8671656e-05
1.9517767e-05
2.037315e-05
2.123182e-05
2.2092518e-05
2.2954579e-05
2.3816834e-05
2.4678763e-05
2.5541257e-05
2.6411168e-05
2.7310208e-05
2.8267495e-05
2.8691284e-05
1.8206165e-05
1.8710667e-05
1.9313951e-05
1.9972007e-05
2.1287929e-05
3.4203661e-05
3.5049934e-05
3.5926691e-05
3.6845452e-05
3.7845966e-05
3.9008105e-05
4.0501813e-05
4.2709796e-05
4.626749e-05
4.5930642e-05
4.6687393e-05
4.7299481e-05
4.7863935e-05
4.8384938e-05
4.8867431e-05
4.9312088e-05
4.971935e-05
5.0089161e-05
5.0421561e-05
5.0716542e-05
5.097421e-05
5.1194719e-05
5.1378309e-05
5.1525309e-05
5.1636115e-05
5.1711237e-05
5.1751219e-05
5.1756744e-05
5.1728508e-05
5.1667358e-05
5.1574091e-05
5.1449654e-05
5.1294927e-05
5.1110973e-05
5.0898751e-05
5.0659435e-05
5.0394066e-05
5.0103903e-05
4.9790003e-05
4.9453646e-05
4.9095869e-05
4.8717947e-05
4.8320887e-05
4.7905972e-05
4.7474215e-05
4.7026921e-05
4.6565119e-05
4.6090148e-05
4.5603057e-05
4.5105183e-05
4.4597577e-05
4.4081505e-05
4.3557908e-05
4.3027954e-05
4.2492506e-05
4.1952684e-05
4.140931e-05
4.0863425e-05
4.0315819e-05
3.9767472e-05
3.9219132e-05
3.8671654e-05
3.8125724e-05
3.7582055e-05
3.7041365e-05
3.650419e-05
3.5971492e-05
3.5443638e-05
3.4921186e-05
3.4404345e-05
3.3893634e-05
3.3389202e-05
3.2891758e-05
3.2401277e-05
3.1918436e-05
3.1442854e-05
3.0975275e-05
3.0515093e-05
3.0063349e-05
2.9619064e-05
2.9183406e-05
2.8754751e-05
2.8334444e-05
2.7920192e-05
2.7513707e-05
2.7112088e-05
2.6717494e-05
2.6326272e-05
2.5941107e-05
2.5557409e-05
2.5178647e-05
2.479902e-05
2.4422913e-05
2.4042828e-05
2.3664433e-05
2.327812e-05
2.2891288e-05
2.2491621e-05
2.2088887e-05
2.1667276e-05
2.1239771e-05
2.0788561e-05
2.0330992e-05
1.9837932e-05
1.9326835e-05
1.8765248e-05
1.8171478e-05
1.7503716e-05
1.6766223e-05
1.584729e-05
1.502005e-05