/*--------------------------------*- C++ -*----------------------------------*\
| =========                 |                                                 |
| \\      /  F ield         | OpenFOAM: The Open Source CFD Toolbox           |
|  \\    /   O peration     | Version:  2.4.0                                 |
|   \\  /    A nd           | Web:      www.OpenFOAM.org                      |
|    \\/     M anipulation  |                                                 |
\*---------------------------------------------------------------------------*/
FoamFile
{
    version     2.0;
    format      ascii;
    class       volScalarField;
    location    "320";
    object      p;
}
// * * * * * * * * * * * * * * * * * * * * * * * * * * * * * * * * * * * * * //

dimensions      [0 2 -2 0 0 0 0];

internalField   nonuniform List<scalar> 
78300
(
-0.10596813
-0.052769775
-0.064790823
-0.051785387
-0.058607733
-0.047267089
-0.043930366
-0.029317806
-0.020686937
-0.01135749
-0.0080970609
-0.0041619474
-0.0032320128
-0.0015454382
-0.0012570123
-0.00034970757
-0.00014373711
0.00044737759
0.00065276493
0.0010568624
0.001218502
0.0014456955
0.0015073242
0.0015734457
0.0015447439
0.0015129627
0.0014197531
0.0013190238
0.0011763457
0.0010286996
0.00085757814
0.00068824306
0.00051355634
0.000353147
0.0002081147
9.5386221e-05
1.5229165e-05
-3.4555709e-05
-5.3077761e-05
-4.103226e-05
-8.2605684e-10
6.5743617e-05
0.00015586963
0.00026197545
0.00037823498
0.00049555549
0.00060309413
0.00069520247
0.00075561864
0.00079521437
0.00079942823
0.00077915302
0.00071154599
0.00061248181
0.00044469335
0.0002388173
-7.0481099e-05
-0.00042507088
-0.00092392666
-0.0014548088
-0.0021988011
-0.002935916
-0.0039957264
-0.004698629
-0.0053468044
-0.0058112021
-0.0062274846
-0.0064943162
-0.0067029471
-0.0067916416
-0.0068194256
-0.0067500442
-0.0066208607
-0.0064098897
-0.0061409289
-0.0058005672
-0.0054043746
-0.0049446963
-0.0044328958
-0.0038592315
-0.0032288043
-0.0025426014
-0.0018031277
-0.0010083839
-0.00016060125
0.00074124628
0.0016956202
0.002703051
0.0037626491
0.0048749592
0.0060397389
0.007257384
0.0085223453
0.0098341504
0.011193467
0.0125963
0.01403778
0.015524978
0.017057845
0.018628323
0.020237063
0.021883402
0.023565732
0.025283456
0.027033693
0.028814503
0.030607171
0.032412449
0.034245044
0.036098074
0.037969199
0.039855043
0.041753662
0.043662241
0.045578893
0.047501048
0.049426857
0.051353994
0.053280644
0.055204626
0.057124192
0.059037311
0.060942453
0.06283771
0.064721697
0.066592738
0.06844983
0.070291488
0.072116669
0.073923863
0.075712244
0.077480423
0.079227716
0.080952949
0.082655813
0.08433541
0.085991479
0.087622996
0.089229646
0.09081037
0.092364817
0.093891984
0.095391755
0.096863424
0.098307413
0.099723443
0.10111234
0.10247419
0.10381003
0.10511976
0.10640417
0.10766301
0.10889698
0.11010584
0.11129011
0.11244969
0.11358529
0.11469686
0.11578504
0.11684981
0.11789181
0.11891105
0.11990871
0.12088597
0.12184397
0.12278251
0.12370199
0.12460219
0.12548408
0.12634812
0.12719573
0.12802671
0.12884191
0.12964029
0.13042321
0.13118947
0.13194115
0.1326765
0.13339805
0.1341034
0.13479564
0.13547209
0.13613675
0.13678605
0.13742475
0.13804819
0.13866239
0.1392613
0.13985253
0.14042776
0.14099661
0.14154772
0.14209393
0.1426197
0.14314262
0.14364159
0.14414046
0.1446104
0.14508329
0.14552
0.14596358
0.14636079
0.14676977
0.14711906
0.14748739
0.14778063
0.14810472
0.14834859
0.14867692
0.14892171
0.1492232
0.14946187
0.14974858
0.14999226
0.15027523
0.1505241
0.1508004
0.1510489
0.1513222
0.15158507
0.15188381
0.15219584
0.15255193
0.15293162
0.15331267
0.15367483
0.15398786
0.1542252
0.15437424
0.15441469
0.15432987
0.15410551
0.15371064
0.15313104
0.15233121
0.15134136
0.15017321
0.14883784
0.14733016
0.14561357
0.14349094
0.14084757
0.13777603
0.13426801
0.13032703
0.12582601
0.12074183
0.11480121
0.10786421
0.099339125
0.089542616
0.077605971
0.064187453
0.047729754
0.029684715
0.0073617803
-0.016646627
-0.046461455
-0.07642973
-0.11317866
-0.14624016
-0.18379802
-0.20206452
-0.2183834
-0.21207197
-0.21277494
-0.19139061
-0.1897565
-0.16142885
-0.16601623
-0.1059716
-0.052773081
-0.064792589
-0.05178644
-0.058602746
-0.047269538
-0.04393401
-0.02934073
-0.020709479
-0.011383181
-0.0081147816
-0.004178676
-0.0032418159
-0.0015549164
-0.0012630267
-0.00035620793
-0.00014850145
0.00044213681
0.00064859833
0.0010525715
0.0012151248
0.0014425841
0.0015050397
0.0015715442
0.0015433747
0.0015119095
0.0014190811
0.0013186034
0.0011762033
0.0010287379
0.00085779555
0.00068855258
0.00051392948
0.00035348868
0.0002083643
9.5439039e-05
1.508386e-05
-3.4895234e-05
-5.3621225e-05
-4.1757184e-05
-9.3880501e-07
6.4673298e-05
0.00015465996
0.00026069448
0.00037689923
0.00049427088
0.00060187809
0.00069417824
0.00075478393
0.00079457162
0.00079894627
0.00077886445
0.00071140531
0.00061253774
0.00044485866
0.00023915983
-7.0094547e-05
-0.0004245792
-0.00092351308
-0.0014543791
-0.0021985409
-0.0029356323
-0.003995066
-0.0046977878
-0.0053461427
-0.0058105381
-0.0062268539
-0.0064936809
-0.0067023334
-0.0067910219
-0.0068188136
-0.0067494244
-0.0066202407
-0.0064092602
-0.0061402947
-0.0057999235
-0.005403726
-0.0049440421
-0.004432244
-0.0038585688
-0.0032281266
-0.0025419161
-0.001802436
-0.0010076856
-0.00015989833
0.00074195398
0.0016963303
0.0027037641
0.0037633632
0.0048756752
0.0060404561
0.0072581102
0.0085230655
0.0098348546
0.011194162
0.012596979
0.014038432
0.015525625
0.017058496
0.018628963
0.020237692
0.021884021
0.023566342
0.025284061
0.02703429
0.028815089
0.030607706
0.032412926
0.03424549
0.036098489
0.037969585
0.0398554
0.041753989
0.043662538
0.045579159
0.047501284
0.049427062
0.051354169
0.053280786
0.055204738
0.057124272
0.05903736
0.06094247
0.062837698
0.064721654
0.066592665
0.068449727
0.070291356
0.072116508
0.073923673
0.075712027
0.077480179
0.079227446
0.080952652
0.082655494
0.084335065
0.085991112
0.087622604
0.089229235
0.090809936
0.092364365
0.093891512
0.095391267
0.096862919
0.098306893
0.099722909
0.10111179
0.10247363
0.10380946
0.10511918
0.10640358
0.10766241
0.10889638
0.11010522
0.11128949
0.11244906
0.11358466
0.11469622
0.1157844
0.11684917
0.11789117
0.11891041
0.11990807
0.12088533
0.12184333
0.12278187
0.12370136
0.12460157
0.12548346
0.1263475
0.12719512
0.1280261
0.12884131
0.1296397
0.13042262
0.13118889
0.13194057
0.13267594
0.1333975
0.13410285
0.13479511
0.13547156
0.13613624
0.13678555
0.13742426
0.13804771
0.13866192
0.13926085
0.13985209
0.14042733
0.1409962
0.14154731
0.14209354
0.14261932
0.14314226
0.14364124
0.14414013
0.14461008
0.14508299
0.1455197
0.14596331
0.14636054
0.14676954
0.14711885
0.14748721
0.14778047
0.14810462
0.14834857
0.14867704
0.14892206
0.14922381
0.14946274
0.14974973
0.14999366
0.15027688
0.15052594
0.15080244
0.15105108
0.15132454
0.15158753
0.1518864
0.15219848
0.1525546
0.15293401
0.15331476
0.15367624
0.15398857
0.15422495
0.15437294
0.15441218
0.15432607
0.15410025
0.15370388
0.15312269
0.15232139
0.15133029
0.15016089
0.14882424
0.1473153
0.14559714
0.14347235
0.14082689
0.13775316
0.13424244
0.13029821
0.12579327
0.1207039
0.11475675
0.10781004
0.099275846
0.089467747
0.07752086
0.064088197
0.04761926
0.029557306
0.0072226149
-0.016804999
-0.046625479
-0.076606864
-0.11334402
-0.14639132
-0.18388703
-0.20210455
-0.21838225
-0.21206041
-0.21275513
-0.1913772
-0.18974741
-0.16142421
-0.16601604
-0.10597519
-0.052776201
-0.064794883
-0.051787294
-0.058597462
-0.047271468
-0.043937522
-0.029364699
-0.020733331
-0.011410499
-0.0081338487
-0.0041966806
-0.0032524852
-0.0015651634
-0.0012695464
-0.00036320584
-0.00015366697
0.00043648588
0.00064408556
0.0010479324
0.0012114552
0.0014392078
0.0015025488
0.0015694726
0.0015418767
0.0015107583
0.0014183382
0.0013181406
0.0011760392
0.0010287783
0.00085803059
0.00068889448
0.00051434337
0.00035387051
0.00020864686
9.5509502e-05
1.4939638e-05
-3.5248869e-05
-5.4194997e-05
-4.2520838e-05
-1.9429175e-06
6.3539441e-05
0.00015337277
0.00025933505
0.00037547176
0.00049290165
0.00060057038
0.000693076
0.00075387699
0.00079386857
0.00079841389
0.00077854034
0.0007112419
0.00061258673
0.00044502304
0.00023951748
-6.9690492e-05
-0.00042405595
-0.00092307509
-0.0014539108
-0.0021982547
-0.0029352852
-0.0039943117
-0.0046968208
-0.0053453812
-0.0058097761
-0.0062261347
-0.006492958
-0.0067016402
-0.0067903233
-0.0068181274
-0.0067487307
-0.0066195495
-0.0064085596
-0.0061395913
-0.0057992105
-0.0054030096
-0.0049433211
-0.0044315297
-0.0038578431
-0.0032273833
-0.0025411652
-0.0018016795
-0.0010069224
-0.0001591312
0.00074272578
0.0016971035
0.0027045401
0.0037641396
0.0048764533
0.0060412356
0.0072589029
0.0085238495
0.0098356164
0.011194912
0.012597711
0.014039127
0.015526316
0.017059196
0.01862965
0.020238368
0.021884687
0.023566999
0.025284711
0.027034933
0.028815725
0.030608285
0.032413433
0.034245965
0.036098929
0.037969994
0.039855777
0.041754334
0.04366285
0.045579439
0.04750153
0.049427274
0.051354346
0.053280929
0.055204846
0.057124346
0.059037401
0.060942476
0.06283767
0.064721593
0.066592572
0.068449601
0.070291198
0.07211632
0.073923453
0.075711779
0.077479899
0.079227139
0.080952315
0.082655133
0.084334675
0.085990699
0.087622162
0.089228775
0.090809449
0.092363859
0.093890983
0.095390721
0.096862355
0.098306313
0.099722316
0.10111118
0.10247301
0.10380883
0.10511853
0.10640292
0.10766174
0.1088957
0.11010453
0.1112888
0.11244837
0.11358396
0.11469552
0.1157837
0.11684846
0.11789046
0.11890971
0.11990736
0.12088463
0.12184263
0.12278117
0.12370066
0.12460087
0.12548277
0.12634682
0.12719444
0.12802543
0.12884065
0.12963904
0.13042197
0.13118825
0.13193994
0.13267532
0.13339689
0.13410225
0.13479452
0.13547099
0.13613567
0.136785
0.13742373
0.13804719
0.13866141
0.13926035
0.13985161
0.14042686
0.14099574
0.14154687
0.14209311
0.14261891
0.14314187
0.14364086
0.14413977
0.14460973
0.14508266
0.14551939
0.14596303
0.14636027
0.1467693
0.14711863
0.14748702
0.14778031
0.14810453
0.14834857
0.14867718
0.14892245
0.14922448
0.14946367
0.14975098
0.14999515
0.15027865
0.15052789
0.15080457
0.15105333
0.15132694
0.15159006
0.15188909
0.15220126
0.15255749
0.15293657
0.15331705
0.15367776
0.15398933
0.15422462
0.15437147
0.1544094
0.15432189
0.1540945
0.15369652
0.15311362
0.15231076
0.1513183
0.15014756
0.14880952
0.14729924
0.14557938
0.14345227
0.14080455
0.1377285
0.1342148
0.13026705
0.12575783
0.12066281
0.11470855
0.10775132
0.099207254
0.089386625
0.077428659
0.063980734
0.047499693
0.029419609
0.0070722267
-0.016975799
-0.046801956
-0.076796944
-0.11352083
-0.14655189
-0.18398017
-0.20214473
-0.21837899
-0.21204617
-0.21273264
-0.19136131
-0.18973729
-0.16141819
-0.16601592
-0.10597827
-0.052778823
-0.064796982
-0.051788157
-0.05859232
-0.047273198
-0.043941
-0.029388283
-0.020756692
-0.011437285
-0.0081525924
-0.0042144334
-0.0032630713
-0.0015753341
-0.0012760073
-0.0003701352
-0.00015881475
0.0004308822
0.00063959501
0.0010433194
0.0012077914
0.0014358396
0.0015000541
0.0015673964
0.0015403692
0.0015095998
0.0014175803
0.0013176698
0.0011758625
0.0010288139
0.00085825547
0.00068922916
0.00051474975
0.00035424835
0.00020892729
9.5579355e-05
1.4795505e-05
-3.5600357e-05
-5.4765009e-05
-4.3272047e-05
-2.9450401e-06
6.2425489e-05
0.00015210207
0.00025799984
0.00037405753
0.00049154906
0.00059926797
0.00069197853
0.00075296265
0.0007931543
0.00079787093
0.00077820505
0.00071107045
0.0006126274
0.00044518349
0.00023987512
-6.928195e-05
-0.00042352678
-0.00092262637
-0.001453429
-0.0021979493
-0.0029349172
-0.0039935878
-0.0046958815
-0.0053446353
-0.0058090307
-0.0062254302
-0.0064922494
-0.0067009615
-0.0067896387
-0.0068174546
-0.0067480499
-0.0066188709
-0.0064078714
-0.0061389001
-0.0057985097
-0.0054023054
-0.0049426127
-0.0044308313
-0.0038571327
-0.0032266526
-0.0025404271
-0.001800936
-0.0010061719
-0.00015837699
0.00074348501
0.0016978639
0.0027053036
0.0037649035
0.0048772198
0.0060420043
0.0072596894
0.0085246255
0.0098363659
0.011195649
0.01259843
0.014039804
0.01552699
0.017059885
0.018630328
0.020239034
0.021885343
0.023567646
0.025285352
0.027035569
0.028816358
0.03060886
0.032413934
0.034246433
0.036099363
0.037970399
0.039856149
0.041754675
0.043663158
0.045579715
0.047501772
0.049427483
0.051354521
0.05328107
0.055204954
0.057124419
0.059037441
0.060942481
0.062837644
0.064721532
0.066592481
0.068449477
0.070291043
0.072116134
0.073923236
0.075711534
0.077479622
0.079226836
0.080951981
0.082654777
0.084334288
0.085990291
0.087621724
0.089228318
0.090808964
0.092363357
0.093890457
0.095390179
0.096861795
0.098305736
0.099721726
0.10111058
0.1024724
0.1038082
0.10511789
0.10640227
0.10766108
0.10889503
0.11010385
0.11128811
0.11244767
0.11358326
0.11469481
0.11578299
0.11684775
0.11788976
0.118909
0.11990666
0.12088393
0.12184193
0.12278047
0.12369997
0.12460018
0.12548208
0.12634614
0.12719377
0.12802476
0.12883999
0.12963838
0.13042133
0.13118761
0.13193932
0.1326747
0.13339628
0.13410166
0.13479393
0.13547042
0.13613511
0.13678445
0.13742319
0.13804667
0.1386609
0.13925986
0.13985113
0.1404264
0.14099529
0.14154643
0.14209269
0.14261851
0.14314148
0.14364049
0.14413941
0.14460939
0.14508234
0.14551908
0.14596275
0.14636
0.14676907
0.14711842
0.14748685
0.14778016
0.14810444
0.14834857
0.14867732
0.14892283
0.14922514
0.1494646
0.14975222
0.14999664
0.15028039
0.1505298
0.15080664
0.15105549
0.15132923
0.15159247
0.15189169
0.15220399
0.1525604
0.15293916
0.15331942
0.1536793
0.15399013
0.15422429
0.15436998
0.1544066
0.15431771
0.15408877
0.15368921
0.1531046
0.15230017
0.15130636
0.15013428
0.14879487
0.14728325
0.1455617
0.1434323
0.14078232
0.13770401
0.13418729
0.13023606
0.1257225
0.12062181
0.11466044
0.10769274
0.099138774
0.089305704
0.077336689
0.063873641
0.047380576
0.02928274
0.0069228735
-0.017145013
-0.046976031
-0.076983449
-0.11369319
-0.14670698
-0.18406767
-0.20217998
-0.21837244
-0.21203001
-0.21270889
-0.19134456
-0.18972672
-0.16141176
-0.16601543
-0.10598103
-0.052781156
-0.064798747
-0.051789021
-0.058586963
-0.047274929
-0.043944636
-0.029412533
-0.020780435
-0.011464549
-0.0081716733
-0.0042325796
-0.0032739288
-0.0015857855
-0.0012826372
-0.00037725769
-0.00016412694
0.00042510557
0.00063495631
0.0010385561
0.0012039959
0.0014323527
0.0014974642
0.0015652459
0.0015388037
0.0015083966
0.0014167861
0.0013171776
0.0011756713
0.0010288409
0.00085847757
0.00068956967
0.00051516593
0.00035463656
0.00020921517
9.565008e-05
1.4645059e-05
-3.5964668e-05
-5.5354749e-05
-4.4045125e-05
-3.9825319e-06
6.1283125e-05
0.00015079262
0.00025662911
0.00037259696
0.00049015504
0.00059791558
0.00069083716
0.00075200333
0.00079239876
0.00079729284
0.00077784488
0.00071088047
0.00061266069
0.00044534578
0.00024024434
-6.8854016e-05
-0.0004229736
-0.00092214942
-0.0014529185
-0.0021976144
-0.0029345278
-0.0039928881
-0.0046949598
-0.0053438943
-0.005808292
-0.0062247296
-0.0064915442
-0.0067002846
-0.0067889547
-0.0068167806
-0.0067473671
-0.0066181889
-0.0064071789
-0.0061382036
-0.0057978028
-0.0054015944
-0.0049418971
-0.0044301268
-0.0038564155
-0.0032259133
-0.0025396798
-0.0018001832
-0.0010054116
-0.00015761264
0.00074425497
0.0016986349
0.0027060785
0.0037656789
0.0048779982
0.0060427857
0.0072604905
0.0085254151
0.0098371273
0.011196398
0.01259916
0.01404049
0.015527674
0.017060586
0.018631019
0.020239712
0.021886012
0.023568307
0.025286007
0.027036219
0.028817009
0.030609452
0.032414444
0.034246912
0.036099808
0.037970813
0.03985653
0.041755025
0.043663474
0.045579998
0.047502022
0.049427698
0.051354702
0.053281216
0.055205066
0.057124496
0.059037485
0.060942488
0.06283762
0.064721474
0.066592391
0.068449353
0.070290888
0.072115947
0.073923018
0.075711287
0.077479343
0.07922653
0.080951643
0.082654416
0.084333896
0.085989876
0.087621277
0.089227855
0.09080847
0.092362846
0.093889919
0.095389626
0.096861223
0.098305148
0.099721125
0.10110996
0.10247177
0.10380755
0.10511724
0.1064016
0.1076604
0.10889434
0.11010315
0.11128741
0.11244696
0.11358255
0.11469409
0.11578227
0.11684703
0.11788904
0.11890829
0.11990594
0.12088321
0.12184121
0.12277976
0.12369926
0.12459948
0.12548138
0.12634545
0.12719308
0.12802407
0.12883931
0.12963771
0.13042066
0.13118696
0.13193867
0.13267406
0.13339566
0.13410105
0.13479333
0.13546983
0.13613454
0.1367839
0.13742265
0.13804614
0.13866038
0.13925935
0.13985064
0.14042592
0.14099483
0.14154598
0.14209226
0.14261809
0.14314108
0.14364011
0.14413905
0.14460904
0.14508201
0.14551877
0.14596246
0.14635974
0.14676883
0.14711821
0.14748667
0.14778002
0.14810436
0.14834856
0.14867747
0.14892323
0.14922584
0.14946557
0.14975351
0.14999819
0.15028221
0.15053177
0.15080875
0.15105767
0.15133153
0.1515949
0.15189431
0.15220677
0.15256342
0.15294184
0.15332194
0.15368092
0.15399099
0.15422395
0.15436843
0.1544037
0.15431341
0.15408285
0.15368167
0.1530953
0.15228927
0.15129404
0.15012058
0.14877975
0.14726677
0.14554347
0.14341172
0.14075939
0.1376788
0.13415889
0.13020408
0.12568601
0.12057943
0.11461071
0.10763218
0.099068036
0.08922212
0.077241757
0.06376318
0.047257859
0.029141912
0.006769418
-0.017318366
-0.047153546
-0.077172634
-0.11386632
-0.14686083
-0.18415067
-0.20220981
-0.21836073
-0.21201041
-0.21268249
-0.19132642
-0.1897152
-0.161405
-0.16601449
-0.10598345
-0.052783211
-0.064800148
-0.051789692
-0.05858121
-0.047276528
-0.043948352
-0.029437456
-0.020804568
-0.011492306
-0.0081911325
-0.0042511587
-0.0032850861
-0.0015965428
-0.0012894593
-0.00038459097
-0.00016961605
0.00041914322
0.0006301612
0.0010336323
0.0012000646
0.0014287411
0.0014947753
0.001563011
0.0015371787
0.0015071483
0.001415957
0.0013166656
0.0011754614
0.0010288632
0.0008587017
0.00068991953
0.00051559491
0.00035503735
0.00020951213
9.5722652e-05
1.4488426e-05
-3.6342917e-05
-5.5966574e-05
-4.4845997e-05
-5.0576538e-06
6.0104908e-05
0.00014943491
0.00025521166
0.00037108023
0.00048870857
0.0005965048
0.00068964345
0.00075099271
0.00079159676
0.00079667319
0.00077745399
0.00071066672
0.00061268027
0.00044550375
0.00024061918
-6.8412319e-05
-0.00042240126
-0.00092164847
-0.0014523827
-0.0021972532
-0.00293412
-0.0039922138
-0.0046940535
-0.0053431554
-0.0058075574
-0.0062240316
-0.0064908408
-0.0066996074
-0.0067882695
-0.0068161037
-0.0067466803
-0.0066175015
-0.0064064801
-0.0061374997
-0.0057970877
-0.0054008742
-0.0049411718
-0.0044294119
-0.0038556874
-0.0032251628
-0.0025389211
-0.0017994188
-0.0010046391
-0.00015683597
0.00074503773
0.0016994188
0.0027068667
0.0037664675
0.0048787903
0.0060435809
0.007261304
0.0085262166
0.009837902
0.011197161
0.012599905
0.01404119
0.015528374
0.017061302
0.018631724
0.020240405
0.021886695
0.023568981
0.025286676
0.027036885
0.028817677
0.030610057
0.032414966
0.034247401
0.036100263
0.037971237
0.039856921
0.041755384
0.043663798
0.045580289
0.047502278
0.04942792
0.051354888
0.053281366
0.055205182
0.057124576
0.059037532
0.060942498
0.062837596
0.064721415
0.066592301
0.068449229
0.070290731
0.072115759
0.073922796
0.075711037
0.077479058
0.079226218
0.080951299
0.08265405
0.084333496
0.085989454
0.087620821
0.089227381
0.090807965
0.092362323
0.093889369
0.09538906
0.096860638
0.098304546
0.09972051
0.10110933
0.10247112
0.10380689
0.10511657
0.10640092
0.10765971
0.10889364
0.11010244
0.1112867
0.11244623
0.11358182
0.11469336
0.11578154
0.11684629
0.1178883
0.11890755
0.1199052
0.12088247
0.12184047
0.12277902
0.12369853
0.12459875
0.12548067
0.12634473
0.12719237
0.12802337
0.12883861
0.12963702
0.13041998
0.13118628
0.13193801
0.13267341
0.13339502
0.13410042
0.13479272
0.13546923
0.13613395
0.13678332
0.13742208
0.13804559
0.13865985
0.13925884
0.13985014
0.14042544
0.14099436
0.14154553
0.14209182
0.14261767
0.14314067
0.14363971
0.14413868
0.14460868
0.14508168
0.14551845
0.14596217
0.14635947
0.14676859
0.14711799
0.1474865
0.14777987
0.14810427
0.14834855
0.14867762
0.14892365
0.14922656
0.14946657
0.14975485
0.14999979
0.15028408
0.15053381
0.15081091
0.1510599
0.15133387
0.15159737
0.15189698
0.15220962
0.15256655
0.15294461
0.15332458
0.15368261
0.1539919
0.15422359
0.15436682
0.1544007
0.15430895
0.15407673
0.15367389
0.15308569
0.152278
0.15128131
0.15010642
0.14876412
0.14724974
0.14552464
0.14339048
0.14073569
0.13765276
0.13412953
0.13017101
0.12564824
0.12053556
0.11455923
0.10756953
0.098994837
0.089135732
0.077143645
0.063649146
0.047131292
0.028996961
0.0066117412
-0.017496002
-0.04733449
-0.077364238
-0.11403935
-0.1470118
-0.18422683
-0.20223181
-0.2183417
-0.21198576
-0.21265249
-0.19130642
-0.1897025
-0.16139786
-0.16601315
-0.1059856
-0.052784969
-0.064801135
-0.051789977
-0.05857488
-0.047277853
-0.043952066
-0.029463021
-0.020829048
-0.011520503
-0.0082109427
-0.0042701598
-0.0032965367
-0.0016076001
-0.001296477
-0.00039213593
-0.00017528126
0.00041299693
0.00062521133
0.0010285514
0.0011959997
0.0014250089
0.0014919911
0.0015606954
0.0015354902
0.0015058573
0.0014150958
0.0013161349
0.0011752374
0.0010288833
0.00085892981
0.00069027939
0.00051603674
0.00035545035
0.00020981759
9.5796389e-05
1.4324682e-05
-3.6736719e-05
-5.6602396e-05
-4.5679412e-05
-6.1715636e-06
5.8885564e-05
0.00014802248
0.00025373941
0.00036950041
0.00048720147
0.00059502902
0.00068839013
0.00074992494
0.00079074263
0.00079600684
0.00077702619
0.00071042228
0.00061267831
0.00044564981
0.00024099208
-6.7964117e-05
-0.00042181638
-0.00092112922
-0.0014518272
-0.0021968703
-0.0029337
-0.0039915727
-0.0046931675
-0.0053424214
-0.0058068296
-0.0062233394
-0.0064901424
-0.0066989322
-0.0067875849
-0.0068154255
-0.0067459911
-0.0066168101
-0.0064057764
-0.0061367896
-0.0057963655
-0.0054001459
-0.0049404374
-0.0044286852
-0.0038549475
-0.003224402
-0.0025381517
-0.0017986437
-0.0010038555
-0.00015604781
0.00074583236
0.0017002146
0.0027076671
0.0037672684
0.0048795946
0.006044388
0.0072621246
0.008527025
0.0098386888
0.011197937
0.012600663
0.014041908
0.015529092
0.017062031
0.018632442
0.02024111
0.021887391
0.023569669
0.025287357
0.027037564
0.028818356
0.030610672
0.032415495
0.034247898
0.036100726
0.037971669
0.039857319
0.041755749
0.043664129
0.045580586
0.047502539
0.049428146
0.051355079
0.053281519
0.055205301
0.057124658
0.059037579
0.060942507
0.062837573
0.064721355
0.066592209
0.068449102
0.070290571
0.072115567
0.07392257
0.075710782
0.077478768
0.0792259
0.080950946
0.082653676
0.084333087
0.085989023
0.087620354
0.089226898
0.090807448
0.092361788
0.093888805
0.095388481
0.096860038
0.098303929
0.099719881
0.10110868
0.10247046
0.10380622
0.10511588
0.10640023
0.10765899
0.10889292
0.1101017
0.11128596
0.11244548
0.11358107
0.1146926
0.11578078
0.11684553
0.11788754
0.11890679
0.11990444
0.12088171
0.12183971
0.12277827
0.12369778
0.12459801
0.12547993
0.126344
0.12719164
0.12802264
0.1288379
0.12963631
0.13041928
0.13118559
0.13193733
0.13267274
0.13339436
0.13409977
0.13479208
0.13546861
0.13613334
0.13678273
0.1374215
0.13804503
0.1386593
0.13925831
0.13984962
0.14042494
0.14099387
0.14154506
0.14209136
0.14261723
0.14314026
0.14363932
0.1441383
0.14460832
0.14508134
0.14551813
0.14596187
0.14635919
0.14676835
0.14711778
0.14748632
0.14777972
0.14810418
0.14834853
0.14867778
0.14892408
0.1492273
0.14946761
0.14975624
0.15000146
0.15028602
0.15053591
0.15081314
0.15106219
0.15133626
0.15159989
0.15189972
0.15221255
0.15256979
0.15294747
0.15332732
0.15368435
0.15399285
0.15422322
0.15436516
0.1543976
0.15430435
0.15407042
0.15366586
0.15307578
0.15226637
0.15126816
0.15009179
0.14874798
0.14723215
0.14550524
0.14336857
0.14071121
0.13762588
0.13409918
0.13013683
0.12560918
0.12049017
0.11450597
0.10750475
0.098919224
0.089046524
0.07704247
0.063531613
0.047001048
0.028848065
0.006450128
-0.017677542
-0.047518324
-0.07755726
-0.11421099
-0.14715776
-0.18429338
-0.20224327
-0.21831299
-0.21195434
-0.21261791
-0.1912841
-0.1896884
-0.16139027
-0.16601144
-0.10598742
-0.052786433
-0.064801639
-0.051789675
-0.058567762
-0.047278744
-0.043955677
-0.029489212
-0.020853869
-0.011549109
-0.0082310886
-0.0042895767
-0.0033082798
-0.0016189602
-0.0013036969
-0.0003998978
-0.00018112668
0.0004066631
0.00062010354
0.0010233117
0.0011918005
0.0014211553
0.0014891117
0.0015583005
0.0015337407
0.0015045245
0.0014142042
0.0013155817
0.0011750022
0.0010289023
0.00085916309
0.00069064962
0.00051649153
0.00035587524
0.00021013099
9.5870444e-05
1.4152553e-05
-3.7148041e-05
-5.7264885e-05
-4.6550483e-05
-7.3264693e-06
5.7618856e-05
0.00014654803
0.00025220321
0.00036784957
0.00048562392
0.00059347994
0.00068706792
0.00074879174
0.00078982828
0.00079528587
0.0007765485
0.00071013807
0.00061264536
0.00044577502
0.00024135421
-6.7517663e-05
-0.00042122676
-0.00092059832
-0.0014512582
-0.0021964715
-0.0029332756
-0.0039909737
-0.0046923077
-0.0053416953
-0.0058061119
-0.0062226571
-0.0064894523
-0.0066982615
-0.0067869034
-0.006814748
-0.0067453012
-0.0066161163
-0.0064050691
-0.0061360746
-0.0057956373
-0.0053994102
-0.0049396943
-0.0044279448
-0.003854194
-0.0032236314
-0.0025373724
-0.0017978583
-0.0010030613
-0.00015524871
0.00074663824
0.0017010218
0.002708479
0.0037680808
0.0048804103
0.0060452059
0.0072629465
0.0085278352
0.0098394869
0.011198725
0.012601435
0.01404265
0.015529831
0.017062772
0.018633172
0.020241827
0.021888099
0.023570368
0.025288051
0.027038256
0.028819044
0.030611291
0.032416032
0.034248403
0.036101196
0.037972107
0.039857724
0.04175612
0.043664465
0.045580888
0.047502805
0.049428375
0.051355271
0.053281675
0.055205421
0.05712474
0.059037626
0.060942515
0.062837547
0.064721293
0.066592114
0.068448972
0.070290407
0.07211537
0.073922338
0.075710521
0.077478471
0.079225575
0.080950586
0.082653293
0.084332668
0.085988581
0.087619875
0.089226402
0.090806917
0.09236124
0.093888227
0.095387887
0.096859424
0.098303297
0.099719236
0.10110801
0.10246979
0.10380553
0.10511518
0.10639951
0.10765826
0.10889218
0.11010095
0.11128521
0.11244472
0.1135803
0.11469182
0.11578001
0.11684476
0.11788677
0.11890602
0.11990367
0.12088093
0.12183894
0.12277749
0.12369701
0.12459725
0.12547918
0.12634325
0.1271909
0.1280219
0.12883717
0.12963559
0.13041857
0.13118488
0.13193663
0.13267205
0.13339368
0.13409911
0.13479143
0.13546798
0.13613272
0.13678213
0.13742091
0.13804446
0.13865874
0.13925777
0.13984909
0.14042442
0.14099337
0.14154457
0.1420909
0.14261679
0.14313983
0.14363891
0.14413791
0.14460795
0.14508099
0.1455178
0.14596157
0.14635891
0.1467681
0.14711756
0.14748614
0.14777957
0.14810408
0.14834851
0.14867794
0.14892452
0.14922807
0.14946868
0.14975768
0.15000318
0.15028803
0.15053808
0.15081544
0.15106455
0.15133873
0.15160249
0.15190255
0.15221557
0.15257314
0.15295042
0.15333015
0.15368615
0.15399382
0.15422282
0.15436343
0.15439438
0.15429959
0.15406389
0.15365757
0.15306555
0.15225436
0.15125458
0.15007668
0.1487313
0.14721398
0.14548523
0.14334599
0.14068591
0.1375981
0.13406782
0.1301015
0.12556879
0.12044324
0.1144509
0.10743784
0.098841134
0.088954513
0.07693816
0.063410651
0.046867185
0.028695303
0.0062848122
-0.017862658
-0.047704584
-0.077750915
-0.11437975
-0.14729663
-0.18434751
-0.20224133
-0.21827203
-0.21191421
-0.21257761
-0.19125889
-0.18967259
-0.16138217
-0.16600938
-0.10598894
-0.052787595
-0.064801581
-0.051788563
-0.058559614
-0.047279005
-0.043959052
-0.029516006
-0.020879051
-0.011578103
-0.0082515536
-0.0043094077
-0.003320316
-0.0016306257
-0.0013111262
-0.00040788452
-0.0001871565
0.00040013572
0.00061483365
0.0010179092
0.0011874638
0.0014171781
0.0014861357
0.001555826
0.0015319311
0.0015031502
0.0014132835
0.001315008
0.0011747573
0.001028921
0.0008594026
0.00069103063
0.00051695948
0.0003563119
0.00021045191
9.5944029e-05
1.3970769e-05
-3.7579023e-05
-5.7956655e-05
-4.7464146e-05
-8.525368e-06
5.6297985e-05
0.0001450041
0.0002505936
0.00036611876
0.00048396537
0.00059184785
0.00068566603
0.00074758323
0.00078884367
0.00079450018
0.00077601161
0.00070980302
0.00061257007
0.00044586873
0.00024169494
-6.7083157e-05
-0.00042064187
-0.00092006426
-0.001450684
-0.0021960644
-0.0029328563
-0.0039904267
-0.0046914808
-0.0053409806
-0.0058054077
-0.006221989
-0.0064887746
-0.0066975979
-0.0067862271
-0.006814073
-0.0067446124
-0.0066154214
-0.0064043594
-0.0061353556
-0.0057949039
-0.0053986677
-0.0049389428
-0.0044271881
-0.0038534247
-0.0032228514
-0.0025365836
-0.001797063
-0.0010022568
-0.00015443904
0.00074745494
0.0017018401
0.0027093021
0.0037689043
0.0048812366
0.0060460332
0.0072637635
0.0085286415
0.0098402954
0.011199525
0.01260222
0.01404342
0.015530599
0.017063525
0.018633913
0.020242555
0.021888818
0.023571078
0.025288756
0.02703896
0.028819731
0.030611907
0.032416575
0.034248913
0.036101671
0.037972551
0.039858132
0.041756495
0.043664803
0.045581191
0.047503071
0.049428605
0.051355464
0.053281829
0.055205539
0.05712482
0.059037671
0.06094252
0.062837518
0.064721226
0.066592014
0.068448835
0.070290235
0.072115165
0.073922098
0.07571025
0.077478163
0.079225238
0.080950213
0.082652898
0.084332236
0.085988126
0.087619382
0.089225892
0.090806371
0.092360676
0.093887632
0.095387276
0.096858792
0.098302647
0.099718573
0.10110733
0.1024691
0.10380482
0.10511445
0.10639878
0.10765751
0.10889143
0.11010018
0.11128443
0.11244393
0.11357951
0.11469102
0.11577921
0.11684396
0.11788597
0.11890522
0.11990287
0.12088013
0.12183814
0.1227767
0.12369622
0.12459647
0.1254784
0.12634248
0.12719013
0.12802114
0.12883642
0.12963484
0.13041783
0.13118416
0.13193591
0.13267135
0.13339298
0.13409843
0.13479076
0.13546733
0.13613208
0.13678151
0.1374203
0.13804387
0.13865817
0.13925721
0.13984855
0.1404239
0.14099287
0.14154408
0.14209042
0.14261633
0.14313939
0.14363849
0.14413751
0.14460757
0.14508063
0.14551746
0.14596126
0.14635863
0.14676785
0.14711734
0.14748595
0.14777943
0.14810398
0.14834849
0.14867811
0.14892498
0.14922887
0.14946979
0.14975916
0.15000496
0.15029009
0.15054032
0.15081781
0.15106699
0.15134128
0.15160518
0.15190547
0.15221869
0.15257659
0.15295346
0.15333308
0.15368799
0.15399481
0.15422241
0.15436163
0.15439106
0.15429466
0.15405714
0.153649
0.15305498
0.15224197
0.15124055
0.15006107