/*--------------------------------*- C++ -*----------------------------------*\
| =========                 |                                                 |
| \\      /  F ield         | OpenFOAM: The Open Source CFD Toolbox           |
|  \\    /   O peration     | Version:  2.4.0                                 |
|   \\  /    A nd           | Web:      www.OpenFOAM.org                      |
|    \\/     M anipulation  |                                                 |
\*---------------------------------------------------------------------------*/
FoamFile
{
    version     2.0;
    format      ascii;
    class       volVectorField;
    location    "320";
    object      U;
}
// * * * * * * * * * * * * * * * * * * * * * * * * * * * * * * * * * * * * * //

dimensions      [0 1 -1 0 0 0 0];

internalField   nonuniform List<vector> 
78300
(
(0.0053084215 2.2788689e-05 1.1723182e-21)
(0.0039025021 1.9624087e-05 -1.0540076e-21)
(0.006642246 -4.2075221e-05 9.3597341e-22)
(0.0052302299 -0.00016110261 -2.4956298e-20)
(0.0058543684 -0.00039700053 -7.233863e-21)
(0.0034007821 -0.00039805811 1.3555342e-20)
(0.0022674601 -0.00040945849 7.977447e-21)
(-0.00049809398 0.00012090043 -2.6598149e-20)
(-0.0014682916 0.00048314159 -9.2178508e-21)
(-0.0023162561 0.00097938206 8.7881283e-21)
(-0.0019304826 0.0009768033 4.9090559e-21)
(-0.0017245671 0.00099943762 -9.3607766e-21)
(-0.0012877257 0.00082568511 1.3211512e-21)
(-0.0011385086 0.00079103889 -3.8776071e-21)
(-0.00092830021 0.00068547713 2.6418753e-21)
(-0.00086952909 0.00067379211 -1.3127228e-21)
(-0.00076322728 0.00061337503 -1.8539026e-22)
(-0.00073437839 0.00060723677 -3.430305e-22)
(-0.00066807117 0.00056351055 2.0473739e-21)
(-0.00064030405 0.00054736405 -2.9650256e-21)
(-0.00058730573 0.00050522823 -5.1839669e-21)
(-0.00055787765 0.00048002264 6.427252e-21)
(-0.00051776439 0.00044260577 2.8920855e-21)
(-0.00049744434 0.00042049486 -1.6764355e-21)
(-0.00047648904 0.00039816019 -4.5863294e-21)
(-0.00046603181 0.00038523012 -1.2395573e-21)
(-0.00045678329 0.00037375416 -1.6455698e-21)
(-0.00045621702 0.00036980103 5.4462663e-21)
(-0.00045831893 0.00036827417 4.0323412e-21)
(-0.00046861731 0.00037357757 2.3419993e-21)
(-0.00048290729 0.00038220838 -1.9635261e-21)
(-0.00050494053 0.00039711575 -3.186049e-21)
(-0.00053177106 0.00041589972 -8.6537975e-22)
(-0.00056541517 0.0004401516 -7.8692458e-22)
(-0.00060325817 0.00046782957 5.030961e-22)
(-0.00064475157 0.00049858798 -1.6061703e-22)
(-0.00068494656 0.0005279581 4.5281457e-23)
(-0.00072466673 0.00055521791 -4.2896106e-24)
(-0.00076437428 0.00058030751 -3.6750178e-22)
(-0.00080320163 0.00060226783 8.0949427e-23)
(-0.00084090555 0.00062063789 -2.4509956e-24)
(-0.00087629786 0.00063426885 -8.5593455e-23)
(-0.00090894694 0.00064263239 -3.1448072e-22)
(-0.00093724655 0.00064445151 -6.0202577e-22)
(-0.00096104675 0.0006395673 1.3728056e-21)
(-0.00097845044 0.00062676072 1.9419086e-21)
(-0.00099115024 0.00060728905 -8.1094511e-22)
(-0.00099783213 0.00058052429 -2.5312913e-21)
(-0.0010060212 0.00055143551 2.6542604e-21)
(-0.001012766 0.00052000597 -2.2082977e-21)
(-0.0010173697 0.00048646132 -4.8320911e-21)
(-0.0010151661 0.00044892401 6.1529141e-22)
(-0.0010103329 0.00040988143 -7.9194391e-22)
(-0.00099433684 0.00036643191 -2.6469412e-21)
(-0.00097750306 0.00032334823 -6.4038374e-22)
(-0.00094327863 0.00027583892 3.1267103e-22)
(-0.00091309157 0.00023152011 -7.4064071e-23)
(-0.00085799931 0.00018367778 -1.0543073e-21)
(-0.00082293265 0.00014331973 -4.2104032e-23)
(-0.00075891049 0.00010144518 3.830973e-21)
(-0.00075498318 7.0087501e-05 -1.3763867e-21)
(-0.0007251895 3.7435898e-05 -2.6930341e-22)
(-0.00088360774 1.0532121e-05 -4.1469688e-22)
(-0.0011975635 2.9085222e-07 1.007311e-25)
(-0.0014088233 2.8952869e-07 -1.5649394e-25)
(-0.001622533 2.6396652e-07 -6.272666e-25)
(-0.0017974482 2.9337581e-07 6.8797302e-25)
(-0.0019704867 2.8397614e-07 -6.9319868e-25)
(-0.0021167911 3.0606789e-07 4.4683687e-25)
(-0.0022592356 3.0632348e-07 -5.8284121e-25)
(-0.0023835583 3.2592903e-07 3.7027736e-25)
(-0.0025038087 3.3153331e-07 7.5445375e-25)
(-0.0026117409 3.4911547e-07 -9.9578061e-25)
(-0.002716011 3.5785121e-07 -3.8273922e-18)
(-0.002811772 3.736033e-07 -3.6622802e-18)
(-0.0029043013 3.8321618e-07 1.6623802e-24)
(-0.0029906112 3.9582849e-07 -6.4670272e-25)
(-0.0030736337 4.0311422e-07 -5.0120733e-25)
(-0.0031515969 4.122414e-07 4.7871793e-25)
(-0.003226172 4.234441e-07 -3.743371e-25)
(-0.0032977059 4.3651391e-07 1.5189009e-25)
(-0.0033665589 4.4476952e-07 -3.4764062e-25)
(-0.0034323491 4.5342429e-07 1.7734504e-25)
(-0.0034956864 4.6058829e-07 8.1075697e-26)
(-0.0035561408 4.6722517e-07 -4.8889114e-26)
(-0.0036141229 4.7264256e-07 3.3020563e-28)
(-0.0036693378 4.7719083e-07 1.8869845e-25)
(-0.0037220399 4.8094131e-07 -2.7158012e-25)
(-0.0037720485 4.8407011e-07 -3.1860706e-25)
(-0.0038195659 4.8690386e-07 4.7585821e-25)
(-0.0038644438 4.8950028e-07 -4.8099118e-25)
(-0.0039067014 4.9259531e-07 3.8935598e-25)
(-0.0039466361 4.8866696e-07 -2.5439794e-25)
(-0.0039839585 4.8075029e-07 -7.0336867e-26)
(-0.0040185404 4.7340001e-07 5.4992416e-27)
(-0.0040497075 4.6204491e-07 4.1756265e-25)
(-0.0040773145 4.4808576e-07 -3.4975636e-26)
(-0.0041007685 4.4242197e-07 6.8155574e-25)
(-0.0041229121 4.3869073e-07 1.6094688e-26)
(-0.0041421219 4.2938388e-07 -1.3903993e-24)
(-0.0041591752 4.2015065e-07 6.6917367e-25)
(-0.004174106 4.1110365e-07 -6.6245997e-26)
(-0.0041876396 4.0255688e-07 1.0109981e-24)
(-0.0042001952 3.9440928e-07 -9.7576135e-27)
(-0.0042127466 3.8435591e-07 -2.0289078e-24)
(-0.0042236378 3.677306e-07 -1.5773295e-25)
(-0.0042316101 3.3589178e-07 5.7390984e-26)
(-0.004226788 3.0358642e-07 1.0766075e-24)
(-0.0042182663 2.8187498e-07 -1.1095485e-25)
(-0.0042050427 2.6099653e-07 -1.4049319e-24)
(-0.0041884583 2.4087746e-07 2.6018788e-24)
(-0.0041685514 2.2055172e-07 -3.0113195e-24)
(-0.0041456025 2.0008185e-07 2.8510686e-24)
(-0.0041196158 1.7949302e-07 -5.4913309e-25)
(-0.0040907488 1.5889381e-07 3.4359809e-25)
(-0.004059028 1.383489e-07 -1.4503424e-24)
(-0.0040245781 1.1792231e-07 8.2425792e-25)
(-0.0039874491 9.7639262e-08 2.2485431e-25)
(-0.0039477543 7.7507962e-08 -1.6171626e-25)
(-0.0039055606 5.792261e-08 -1.600171e-25)
(-0.0038609799 3.8476963e-08 3.4092791e-17)
(-0.003814092 1.9831343e-08 3.5224674e-17)
(-0.0037650107 1.2906813e-09 2.0688929e-24)
(-0.0037138226 -1.6268736e-08 -1.672741e-25)
(-0.0036606469 -3.3626523e-08 -1.9434615e-25)
(-0.003605576 -4.9963305e-08 -1.4169885e-25)
(-0.0035487315 -6.6042012e-08 -1.167706e-26)
(-0.003490203 -8.1142309e-08 -4.8234469e-25)
(-0.0034301121 -9.5715555e-08 -2.2226791e-25)
(-0.0033685526 -1.0968387e-07 7.7139797e-25)
(-0.003305647 -1.2267547e-07 4.2333535e-26)
(-0.0032414911 -1.3542396e-07 4.2393564e-25)
(-0.0031762062 -1.4701115e-07 -7.0198588e-25)
(-0.0031098918 -1.5834788e-07 9.8253537e-26)
(-0.0030426622 -1.6822756e-07 2.2786982e-26)
(-0.0029746141 -1.7833862e-07 4.4608218e-26)
(-0.0029058508 -1.8696449e-07 4.3338674e-27)
(-0.0028364679 -1.9586758e-07 2.8601239e-25)
(-0.00276656 -2.029263e-07 -1.2667897e-25)
(-0.0026962252 -2.1051217e-07 -6.8336897e-25)
(-0.0026255522 -2.1632041e-07 1.312677e-24)
(-0.0025546425 -2.2231347e-07 -1.8991818e-24)
(-0.0024835817 -2.2688129e-07 3.3043115e-26)
(-0.0024124725 -2.309911e-07 1.0116499e-24)
(-0.0023413966 -2.3461305e-07 -2.8662355e-25)
(-0.0022704505 -2.3727382e-07 6.8578189e-25)
(-0.0021997105 -2.4019616e-07 -2.8917539e-25)
(-0.0021292603 -2.4205751e-07 -1.85549e-26)
(-0.0020591654 -2.4424353e-07 -3.2680278e-25)
(-0.0019894963 -2.4568128e-07 -3.349609e-25)
(-0.0019203117 -2.4712109e-07 -3.1662991e-25)
(-0.001851681 -2.4837409e-07 1.2060824e-24)
(-0.0017836547 -2.490131e-07 7.8277608e-25)
(-0.0017163041 -2.4986554e-07 1.2827843e-24)
(-0.0016496665 -2.496546e-07 -5.1199022e-25)
(-0.0015838211 -2.4991697e-07 -1.4391164e-24)
(-0.0015187895 -2.4939802e-07 -3.4733176e-24)
(-0.0014546529 -2.4918018e-07 6.8431229e-17)
(-0.0013914164 -2.4826224e-07 3.2717116e-20)
(-0.0013291662 -2.4738815e-07 -6.9748948e-17)
(-0.0012678927 -2.4639678e-07 -5.3029351e-24)
(-0.0012076976 -2.4515184e-07 7.8144901e-25)
(-0.0011485657 -2.4458849e-07 -9.2193734e-24)
(-0.0010905882 -2.4441024e-07 9.5261698e-24)
(-0.0010337153 -2.4442803e-07 8.7279387e-25)
(-0.00097803253 -2.4415967e-07 -8.6513921e-24)
(-0.00092348047 -2.4369168e-07 4.7914167e-24)
(-0.00087018562 -2.430811e-07 -5.2611492e-24)
(-0.0008180653 -2.4280758e-07 7.7498086e-24)
(-0.00076727433 -2.4305526e-07 -1.9844381e-24)
(-0.00071767503 -2.4370575e-07 -3.8770552e-24)
(-0.0006694494 -2.4442238e-07 1.246558e-24)
(-0.00062240608 -2.4483051e-07 5.0097227e-24)
(-0.00057680413 -2.4512474e-07 -5.8061203e-24)
(-0.00053239003 -2.4538771e-07 5.0660549e-24)
(-0.00048951547 -2.4541011e-07 -5.5251687e-24)
(-0.00044781797 -2.4582471e-07 2.8308111e-24)
(-0.00040776153 -2.4559125e-07 3.2216466e-24)
(-0.00036883436 -2.4606405e-07 5.2114092e-24)
(-0.00033166361 -2.4529868e-07 -5.9817317e-24)
(-0.00029554731 -2.4577959e-07 -4.1016923e-24)
(-0.00026133611 -2.4488664e-07 5.2654269e-24)
(-0.00022807252 -2.458387e-07 -1.119417e-23)
(-0.00019689929 -2.4478759e-07 1.0407681e-23)
(-0.00016652519 -2.458062e-07 -6.1605424e-24)
(-0.00013848895 -2.4442205e-07 5.3573889e-24)
(-0.0001110601 -2.4563304e-07 -6.2197655e-24)
(-8.6299165e-05 -2.4386027e-07 -4.2673812e-24)
(-6.1885172e-05 -2.4494268e-07 3.391738e-24)
(-4.0574081e-05 -2.4213019e-07 -4.3054416e-24)
(-1.9263535e-05 -2.4259649e-07 1.1104561e-23)
(-1.653511e-06 -2.3777792e-07 -6.7334293e-24)
(1.6411166e-05 -2.3706449e-07 5.8927813e-24)
(2.9951942e-05 -2.2918197e-07 -1.0068801e-23)
(4.4551505e-05 -2.271323e-07 9.5472064e-25)
(5.3501078e-05 -2.1548685e-07 3.4897312e-24)
(6.4323727e-05 -2.1190312e-07 3.9040706e-24)
(6.7972977e-05 -1.9502222e-07 -1.4839866e-23)
(7.4566259e-05 -1.8837792e-07 8.6527611e-17)
(7.1872539e-05 -1.6331921e-07 8.6900066e-17)
(7.3476641e-05 -1.5175828e-07 -4.423279e-24)
(6.3011945e-05 -1.1482556e-07 -6.5557824e-24)
(5.8475231e-05 -9.6180579e-08 5.7015023e-24)
(3.805925e-05 -4.2292164e-08 1.0247555e-24)
(2.5020201e-05 -1.4040257e-08 -1.8911198e-24)
(-9.2345153e-06 6.1679921e-08 -8.8130182e-17)
(-3.6250195e-05 1.0587282e-07 -8.844981e-17)
(-9.8243032e-05 -9.5710065e-07 -1.5801418e-20)
(-0.00014208975 -7.2555551e-06 1.6361748e-19)
(-0.00015313159 -1.4171978e-05 7.4055e-20)
(-0.00017060614 -2.2861613e-05 -4.7903574e-19)
(-0.00016372829 -2.8638091e-05 -7.9533828e-20)
(-0.0001643271 -3.5437739e-05 -5.3098979e-19)
(-0.00014604812 -3.7385913e-05 3.5408505e-20)
(-0.00013240996 -3.9236981e-05 -5.5101664e-21)
(-0.00010383685 -3.499636e-05 1.9518277e-19)
(-7.6923115e-05 -2.9177749e-05 -1.5299899e-19)
(-3.8128038e-05 -1.6413933e-05 4.9712884e-19)
(1.45356e-06 -3.8137062e-07 -3.376671e-19)
(5.0916444e-05 2.3392669e-05 -9.1489726e-20)
(0.00010351231 5.2394129e-05 -1.6757886e-19)
(0.00016573493 9.0456532e-05 9.4947848e-19)
(0.00023473985 0.00013668062 2.0730694e-19)
(0.00031735082 0.00019500276 -8.0686412e-19)
(0.00040749936 0.00026192671 -8.836581e-19)
(0.00050889638 0.0003397262 -1.4094764e-19)
(0.0006177333 0.00042575064 6.7786995e-20)
(0.00073678762 0.00052173945 -9.4409605e-19)
(0.00086318855 0.00062531425 -6.2934512e-20)
(0.0009992159 0.00073762395 -1.7090951e-19)
(0.0011421816 0.00085605802 -1.1182096e-18)
(0.0012937534 0.00098109905 1.6944355e-19)
(0.0014507932 0.0011094595 9.1541343e-19)
(0.0016136431 0.0012404109 6.626332e-19)
(0.001775092 0.0013678017 -2.4774503e-19)
(0.001927408 0.0014882715 -1.2248657e-19)
(0.0020747315 0.0016071064 -1.1339293e-19)
(0.0022191298 0.0017261998 2.3100773e-19)
(0.0023596889 0.0018448721 8.1046654e-19)
(0.0024999617 0.0019655115 -8.7927815e-19)
(0.002617357 0.0020704247 2.3508562e-19)
(0.0027392985 0.0021820887 2.4273088e-20)
(0.0028747806 0.0023089097 2.1957254e-19)
(0.003026377 0.0024531421 1.29097e-19)
(0.0031994431 0.0026197229 -6.00876e-20)
(0.0033923098 0.0028079103 3.0026568e-19)
(0.0036206244 0.0030316068 -3.5564091e-20)
(0.0038947843 0.003298186 -6.1333757e-19)
(0.0042662835 0.0036366563 -1.4465952e-20)
(0.0046810515 0.0039895468 -3.8610745e-19)
(0.0051881313 0.0043932719 3.5103297e-19)
(0.0057402206 0.0047963651 2.796089e-20)
(0.0064262095 0.0052619778 3.9478494e-20)
(0.0071719683 0.0057090588 -8.4154782e-20)
(0.0081308097 0.0062395077 4.2830867e-20)
(0.0091827562 0.006719794 1.2820875e-20)
(0.010577501 0.00728641 9.125514e-20)
(0.012059458 0.0076832881 2.2705629e-19)
(0.014011066 0.00807834 -1.2639368e-19)
(0.015813547 0.0079907069 -4.103089e-19)
(0.017708848 0.0074951164 -4.6104352e-19)
(0.017881995 0.0059704391 -8.6756175e-20)
(0.016977896 0.0042719321 1.2745963e-19)
(0.014518877 0.0026021901 -1.5671948e-19)
(0.012391932 0.0014636267 -9.4424489e-20)
(0.0090796123 0.00062407922 -1.9772069e-20)
(0.0076327445 0.00024029217 -2.8944703e-20)
(0.0046830536 3.3537985e-05 -1.7485654e-20)
(0.0049978757 -2.7378875e-05 -9.9090383e-21)
(0.0024209194 -1.0765813e-05 -1.7006931e-21)
(0.016057631 5.944114e-05 1.2891371e-21)
(0.012337429 5.0685192e-05 3.0319187e-21)
(0.020087289 -0.00013458377 -3.4400184e-21)
(0.016008114 -0.00048698343 2.9298994e-20)
(0.017774721 -0.0011892441 4.3496395e-22)
(0.010585237 -0.0012057169 4.9886167e-20)
(0.0071538417 -0.0012445761 -2.0975921e-20)
(-0.0011047523 0.00032066991 3.7706169e-20)
(-0.0041717311 0.0014162721 2.7870754e-20)
(-0.0068309458 0.0029161266 -2.0793488e-20)
(-0.0057607697 0.0029269807 -5.8933791e-21)
(-0.0051685851 0.0030010327 1.4434429e-21)
(-0.0038775342 0.0024880002 3.0083757e-20)
(-0.0034295948 0.0023841013 2.913655e-21)
(-0.0028024124 0.0020697416 -7.1913527e-21)
(-0.0026234189 0.002033604 1.181807e-21)
(-0.002305409 0.0018532673 -3.1153131e-22)
(-0.0022170767 0.0018339308 4.2007948e-22)
(-0.0020187514 0.0017031555 2.104256e-21)
(-0.0019346368 0.0016540655 -1.2210954e-21)
(-0.0017763195 0.0015278136 2.385084e-21)
(-0.0016878634 0.00145173 -3.118528e-21)
(-0.0015681672 0.0013395011 -4.651609e-21)
(-0.0015072075 0.0012728316 -1.3297166e-20)
(-0.0014448049 0.0012058094 4.140232e-21)
(-0.0014137204 0.0011669546 6.4956307e-21)
(-0.0013865384 0.001132696 9.3131147e-21)
(-0.001385348 0.0011210026 -4.5853326e-21)
(-0.0013923336 0.0011167754 -1.7703763e-21)
(-0.0014238527 0.0011330525 -7.7415622e-21)
(-0.0014674556 0.0011594608 9.8688087e-21)
(-0.0015342149 0.0012047143 4.68743e-21)
(-0.0016153822 0.0012616903 6.249427e-22)
(-0.001716849 0.0013350577 8.3858077e-22)
(-0.001830816 0.0014187136 1.3697406e-23)
(-0.0019556076 0.0015115472 -7.6727441e-22)
(-0.0020765892 0.0016002389 -1.0561155e-22)
(-0.0021961141 0.0016825456 1.0902672e-23)
(-0.002315555 0.0017582531 3.6331433e-22)
(-0.0024323524 0.0018244825 4.1499906e-23)
(-0.0025457823 0.0018798595 5.0120174e-25)
(-0.0026523141 0.0019208956 -4.7369555e-22)
(-0.0027506523 0.0019460338 -1.9991905e-22)
(-0.0028360821 0.0019514462 -2.4237516e-22)
(-0.0029081423 0.0019366534 7.093284e-22)
(-0.0029612624 0.0018980277 -4.9499423e-21)
(-0.0030004258 0.0018393096 1.8020529e-21)
(-0.0030218521 0.001758713 -1.4634923e-21)
(-0.0030478984 0.0016710733 -1.6003839e-22)
(-0.0030697925 0.0015763152 -1.4319029e-21)
(-0.0030853995 0.0014750752 9.6693642e-22)
(-0.0030809244 0.0013618505 -4.863259e-21)
(-0.0030686687 0.001243922 -3.0842564e-22)
(-0.0030235428 0.0011128427 8.5374518e-22)
(-0.0029759375 0.00098259541 -1.7238225e-22)
(-0.0028772948 0.00083924029 9.5836025e-22)
(-0.0027906738 0.00070508612 2.8341944e-22)
(-0.0026308447 0.00056062147 -1.3877752e-21)
(-0.0025301215 0.00043810082 9.0062549e-22)
(-0.0023457516 0.00031164084 -1.2939699e-22)
(-0.0023397943 0.0002161843 -4.9878099e-22)
(-0.0022631147 0.00011819675 -5.8437802e-21)
(-0.0027425486 3.8439916e-05 6.3124601e-22)
(-0.0036770984 7.1913625e-06 -1.2532701e-24)
(-0.0043110111 5.9891828e-06 -1.2006407e-26)
(-0.0049502213 5.3849676e-06 -3.4174936e-25)
(-0.0054744149 4.9149143e-06 1.1447599e-24)
(-0.0059915085 4.4571602e-06 -7.0154855e-25)
(-0.0064294259 4.096594e-06 2.4855145e-25)
(-0.0068549062 3.7595253e-06 2.5292167e-25)
(-0.0072267483 3.4951619e-06 2.4854202e-25)
(-0.0075858761 3.2521409e-06 -8.772796e-25)
(-0.0079085095 3.061044e-06 3.6952018e-25)
(-0.0082198493 2.8861396e-06 2.2256798e-25)
(-0.0085059449 2.7455119e-06 1.9775973e-25)
(-0.0087821539 2.6134548e-06 -1.2831283e-24)
(-0.0090398874 2.4974564e-06 8.1576987e-25)
(-0.0092876702 2.3814173e-06 -3.6801379e-25)
(-0.0095202709 2.278175e-06 1.734682e-25)
(-0.0097423591 2.193181e-06 -3.899151e-25)
(-0.009955486 2.1217155e-06 1.797382e-25)
(-0.010160543 2.0458178e-06 1.332717e-25)
(-0.010356361 1.9757882e-06 8.0777737e-26)
(-0.010544723 1.9045974e-06 2.2288313e-26)
(-0.010724396 1.8350246e-06 -4.214396e-26)
(-0.010896566 1.7643145e-06 -1.1246814e-25)
(-0.011060384 1.693988e-06 1.3502531e-25)
(-0.011216581 1.6227451e-06 5.895868e-26)
(-0.01136463 1.5525125e-06 5.800237e-25)
(-0.011505115 1.4820286e-06 -9.408121e-25)
(-0.011637613 1.4109483e-06 7.9608882e-25)
(-0.011762286 1.3393085e-06 -1.9826886e-25)
(-0.011880072 1.2675299e-06 -9.7103259e-25)
(-0.011989886 1.1903901e-06 -4.8551161e-25)
(-0.012091487 1.099111e-06 3.9929577e-25)
(-0.012182973 9.9274384e-07 2.6908649e-25)
(-0.01226362 8.8145072e-07 9.1729328e-25)
(-0.012331398 7.9940904e-07 7.9896238e-25)
(-0.012395505 7.3126684e-07 -2.3708857e-24)
(-0.012450936 6.5433627e-07 7.9899827e-25)
(-0.012499827 5.874374e-07 5.4018285e-25)
(-0.012542358 5.3108212e-07 1.5084628e-24)
(-0.012580695 4.911279e-07 -3.2777653e-24)
(-0.012616159 4.6963417e-07 1.6069264e-24)
(-0.01265169 4.3967869e-07 7.5681319e-25)
(-0.012682829 3.5867913e-07 1.4280068e-24)
(-0.012705829 1.2504362e-07 -3.6492563e-24)
(-0.012689424 -1.1466127e-07 8.1803594e-25)
(-0.012661565 -2.4676544e-07 2.3635938e-25)
(-0.012619791 -3.6794122e-07 3.1294639e-24)
(-0.012567989 -4.7117303e-07 -2.6776434e-24)
(-0.012506289 -5.6923262e-07 1.1063534e-24)
(-0.012435513 -6.6403812e-07 -8.0422166e-28)
(-0.012355683 -7.5564617e-07 -3.5790077e-24)
(-0.012267263 -8.4481972e-07 6.7309915e-25)
(-0.01217034 -9.3116733e-07 8.0251564e-25)
(-0.012065281 -1.0148451e-06 5.0848684e-25)
(-0.011952243 -1.0954171e-06 1.3980533e-24)
(-0.011831562 -1.1730645e-06 1.3518186e-25)
(-0.011703442 -1.2474389e-06 -7.7948195e-25)
(-0.011568217 -1.3187315e-06 4.5799472e-25)
(-0.011426126 -1.3864055e-06 -6.6073286e-25)
(-0.011277509 -1.450782e-06 2.8611093e-25)
(-0.011122628 -1.5114944e-06 -4.4435275e-25)
(-0.010961835 -1.5684427e-06 9.9839404e-25)
(-0.010795406 -1.6215016e-06 -1.8611765e-24)
(-0.010623702 -1.6710077e-06 -4.1198292e-25)
(-0.010446995 -1.7166934e-06 7.3618328e-25)
(-0.010265651 -1.758977e-06 1.409465e-24)
(-0.01007995 -1.7972322e-06 -1.8658272e-25)
(-0.0098902586 -1.8322637e-06 -4.1239727e-25)
(-0.0096968633 -1.8629129e-06 -7.7668255e-25)
(-0.0095001245 -1.8905766e-06 7.1679104e-25)
(-0.0093003373 -1.9139916e-06 -1.7453211e-25)
(-0.0090978397 -1.9347446e-06 -1.4064303e-26)
(-0.0088929234 -1.9512478e-06 -8.9203066e-26)
(-0.0086858999 -1.965457e-06 1.1995367e-26)
(-0.0084770585 -1.9757362e-06 4.2426866e-25)
(-0.0082666847 -1.9838629e-06 -7.7103429e-25)
(-0.0080550726 -1.9879076e-06 -1.271274e-25)
(-0.00784249 -1.9900388e-06 -5.2981276e-25)
(-0.0076292375 -1.9882879e-06 1.561424e-24)
(-0.0074155674 -1.9844971e-06 1.3185965e-24)
(-0.0072017803 -1.9772298e-06 -2.4331698e-25)
(-0.0069881152 -1.9678936e-06 -3.3052355e-24)
(-0.0067748545 -1.9557677e-06 -1.9627787e-24)
(-0.0065622231 -1.9416785e-06 2.8822621e-24)
(-0.0063504685 -1.9255099e-06 4.4490023e-24)
(-0.006139791 -1.9080069e-06 -7.5182634e-24)
(-0.0059304058 -1.8884172e-06 1.8591176e-24)
(-0.0057224925 -1.8677835e-06 -1.6448035e-25)
(-0.0055162609 -1.8449624e-06 3.7044747e-24)
(-0.005311863 -1.8214917e-06 -2.7133964e-24)
(-0.005109515 -1.7959504e-06 1.3343979e-24)
(-0.0049093276 -1.7699814e-06 1.8678835e-24)
(-0.0047115352 -1.742089e-06 4.0924287e-24)
(-0.0045162031 -1.7139123e-06 -1.025916e-23)
(-0.004323574 -1.684184e-06 4.1119384e-24)
(-0.004133665 -1.6543659e-06 -1.5271545e-25)
(-0.0039467335 -1.6232381e-06 -6.2313519e-24)
(-0.0037627512 -1.5918064e-06 -2.1146443e-25)
(-0.0035820135 -1.5593925e-06 1.1175844e-23)
(-0.003404458 -1.5270552e-06 3.3814137e-24)
(-0.0032303565 -1.4951044e-06 -7.9229528e-24)
(-0.0030595844 -1.4637513e-06 9.9513124e-24)
(-0.0028924074 -1.4318651e-06 1.3407524e-24)
(-0.0027286509 -1.3998982e-06 -8.8071254e-24)
(-0.0025686814 -1.3673529e-06 1.5601085e-23)
(-0.0024122447 -1.3352666e-06 -1.1492213e-23)
(-0.0022597929 -1.3031506e-06 1.5267733e-24)
(-0.002110929 -1.2721472e-06 2.1232814e-24)
(-0.0019662025 -1.2407813e-06 -1.0852304e-23)
(-0.0018250592 -1.2099038e-06 1.2097447e-23)
(-0.0016882613 -1.1775537e-06 2.3605137e-24)
(-0.0015550582 -1.1459598e-06 -6.1475657e-24)
(-0.0014264843 -1.1129133e-06 -6.2198465e-24)
(-0.0013014708 -1.0810746e-06 -1.2006409e-23)
(-0.0011813904 -1.0475718e-06 2.186923e-23)
(-0.0010647312 -1.0155538e-06 1.5182712e-23)
(-0.00095334996 -9.8155474e-07 -3.2875811e-23)
(-0.00084516258 -9.4933234e-07 3.2703136e-23)
(-0.00074268661 -9.1492779e-07 -9.7501895e-24)
(-0.00064308644 -8.8277053e-07 -1.5127467e-23)
(-0.00054975194 -8.4780078e-07 -1.2433442e-23)
(-0.00045885775 -8.1535767e-07 -4.5839428e-25)
(-0.00037496369 -7.7902122e-07 2.8117971e-23)
(-0.00029294321 -7.4583315e-07 -2.0785698e-23)
(-0.00021890258 -7.0732648e-07 1.3073132e-23)
(-0.00014597521 -6.7276943e-07 -2.080675e-23)
(-8.2326444e-05 -6.3036679e-07 2.3160713e-23)
(-1.878189e-05 -5.9263218e-07 -1.2765604e-23)
(3.3707745e-05 -5.4371661e-07 7.6222694e-24)
(8.7424669e-05 -5.0110684e-07 2.5573268e-24)
(0.0001276437 -4.4288344e-07 -1.2921267e-23)
(0.00017086286 -3.9336785e-07 1.3442989e-23)
(0.00019724201 -3.224805e-07 -1.8740034e-25)
(0.00022900525 -2.6392715e-07 5.2028609e-24)
(0.00023939556 -1.748867e-07 -2.4290629e-23)
(0.00025830018 -1.0135392e-07 1.6421325e-23)
(0.00024955087 1.5553585e-08 5.2440085e-24)
(0.00025327146 1.1048632e-07 -2.4520914e-23)
(0.00022105889 2.6703543e-07 2.4152341e-23)
(0.00020608149 3.9552015e-07 1.6673314e-23)
(0.00014383807 6.1777266e-07 -2.467381e-23)
(0.00010305899 8.0452116e-07 1.9389723e-23)
(-8.6487346e-07 1.1410952e-06 -2.7461301e-23)
(-8.3702032e-05 1.5168775e-06 -2.9041134e-23)
(-0.00027009705 -1.2682561e-06 4.1192284e-20)
(-0.0004021354 -1.9929047e-05 1.78958e-20)
(-0.00043628626 -4.021381e-05 8.6328526e-21)
(-0.00048881696 -6.5690377e-05 5.7154746e-19)
(-0.0004686587 -8.2468281e-05 2.8476805e-19)
(-0.00047018833 -0.000102159 1.3069226e-18)
(-0.00041537477 -0.00010736754 1.1519319e-18)
(-0.00037403868 -0.00011211157 -2.9864333e-19)
(-0.00028815232 -9.863727e-05 -3.7045888e-19)
(-0.00020692417 -8.0255682e-05 8.1556315e-20)
(-9.0097075e-05 -4.1083341e-05 -2.631694e-19)
(2.9529326e-05 8.0370897e-06 2.1041631e-19)
(0.00017900594 8.0347432e-05 -2.3352511e-19)
(0.00033838673 0.00016846114 -1.0341818e-19)
(0.00052685653 0.00028375776 -7.5447568e-19)
(0.000736035 0.0004236122 1.7624081e-18)
(0.00098545932 0.00059976846 6.6740326e-19)
(0.0012571756 0.00080172525 4.3248631e-20)
(0.0015620553 0.001036352 -4.564775e-19)
(0.0018888392 0.0012956251 -5.3516442e-19)
(0.0022459639 0.0015847664 1.1350747e-18)
(0.002625031 0.0018966579 -2.0508258e-18)
(0.0030327593 0.0022346616 4.563565e-19)
(0.0034612201 0.0025910439 -2.2582199e-19)
(0.0039151793 0.0029671651 3.6927475e-19)
(0.0043852962 0.0033532568 -8.39909e-19)
(0.0048723686 0.0037470307 -2.3840021e-19)
(0.0053552348 0.0041302457 -5.3926096e-19)
(0.0058114971 0.0044931316 3.423979e-19)
(0.0062533182 0.0048512685 -7.4090202e-19)
(0.006686559 0.0052102513 -4.0462454e-19)
(0.0071080975 0.005568081 -7.2407986e-19)
(0.0075259475 0.0059313068 3.6071941e-20)
(0.0078712143 0.0062457711 8.6679688e-19)
(0.0082317371 0.0065814003 -3.3299932e-19)
(0.0086347595 0.0069630401 3.8645736e-19)
(0.0090868454 0.0073973004 -2.4475223e-19)
(0.009602908 0.0078984752 -1.1849852e-18)
(0.010178115 0.0084647239 2.1858275e-19)
(0.010858329 0.0091371445 1.3109095e-19)
(0.011674848 0.0099380839 1.0896071e-18)
(0.012777251 0.010951692 -1.8733358e-19)
(0.014009241 0.012009684 1.8920512e-19)
(0.015513854 0.013217647 -3.1151821e-20)
(0.017154464 0.014425358 -1.0689283e-19)
(0.019188489 0.015815835 -2.7558293e-19)
(0.021403995 0.017153215 3.5382841e-20)
(0.02424536 0.01873262 -3.8710736e-20)
(0.027368369 0.020165502 1.9727508e-20)
(0.031496461 0.021843376 -3.117742e-20)
(0.035901709 0.023022188 -2.7599956e-19)
(0.041681125 0.024177072 3.2341085e-19)
(0.047045071 0.02390646 1.1011593e-19)
(0.052659283 0.022406437 5.5637195e-19)
(0.053320829 0.017894129 -2.7392943e-19)
(0.050834027 0.012850637 2.6758768e-19)
(0.04378481 0.0078852228 -1.2248148e-19)
(0.037553923 0.0044655447 -3.4881549e-19)
(0.027837143 0.001937601 -8.74457e-20)
(0.023436065 0.00076234217 8.1247492e-21)
(0.014713586 0.00012229291 2.7746741e-20)
(0.015462082 -7.0120186e-05 5.1752978e-21)
(0.0080769526 -3.5354038e-05 6.1700382e-21)
(0.027206108 8.4538961e-05 1.2069222e-21)
(0.021484364 7.098587e-05 -1.0384433e-21)
(0.033869873 -0.00023868148 -3.6825077e-22)
(0.027328359 -0.00082407538 -1.474611e-20)
(0.030077486 -0.0019874992 4.4192411e-20)
(0.018316658 -0.0020460701 -3.3266747e-20)
(0.012482766 -0.0021197625 2.0814542e-20)
(-0.0012841975 0.00044360191 -8.0184545e-20)
(-0.0066714011 0.0022974297 3.8518927e-20)
(-0.011288837 0.0048275997 8.3357134e-22)
(-0.0096230232 0.0048836802 8.3006599e-21)
(-0.0086619573 0.0050186742 -7.681015e-21)
(-0.0065253372 0.0041778382 -2.9944155e-20)
(-0.0057716063 0.0040042235 5.752942e-21)
(-0.004724903 0.0034838715 7.7674998e-21)
(-0.0044202625 0.0034213541 -3.1699578e-22)
(-0.0038884916 0.0031219104 1.3373997e-22)
(-0.0037375464 0.0030877508 -9.7318006e-22)
(-0.0034058915 0.0028700119 -4.4992975e-21)
(-0.0032634543 0.0027866395 4.9872954e-21)
(-0.0029987894 0.00257596 6.7010033e-21)
(-0.0028498743 0.0024479132 1.7486825e-21)
(-0.0026497987 0.0022604772 -5.3618992e-21)
(-0.0025472801 0.0021485207 1.4685123e-20)
(-0.0024430939 0.0020365948 -4.5350036e-22)
(-0.0023911781 0.0019716386 7.7095913e-21)
(-0.0023462506 0.0019148017 -7.0391682e-21)
(-0.0023447984 0.0018956717 -4.3415617e-21)
(-0.0023573651 0.0018893667 -1.9631227e-22)
(-0.0024109828 0.0019173634 -3.679401e-21)
(-0.0024850793 0.0019625668 1.1252698e-21)
(-0.0025979129 0.0020392953 7.8762801e-22)
(-0.0027349991 0.0021357835 2.2142183e-21)
(-0.0029059703 0.0022596284 -6.1268736e-23)
(-0.0030978474 0.0024006708 1.9677355e-21)
(-0.0033077332 0.0025568885 6.9041791e-22)
(-0.0035113687 0.002706188 2.4906949e-23)
(-0.0037125085 0.002844697 1.6993496e-23)
(-0.0039134348 0.002971993 5.2551549e-23)
(-0.00410991 0.0030832844 -1.8409871e-22)
(-0.0043007299 0.0031762184 4.1008313e-24)
(-0.0044799904 0.0032450132 7.4990253e-22)
(-0.0046455462 0.0032870058 8.7685403e-22)
(-0.0047895969 0.0032958696 4.4126148e-24)
(-0.0049113596 0.0032707419 -5.727455e-21)
(-0.0050016542 0.0032057009 2.5036661e-21)
(-0.0050686987 0.0031068604 3.4951304e-21)
(-0.0051064029 0.0029715181 3.2397839e-21)
(-0.0051519773 0.0028242861 5.3115786e-22)
(-0.0051908576 0.0026650109 -1.4120714e-21)
(-0.0052193694 0.00249465 5.0772668e-21)
(-0.0052147578 0.0023042623 1.2811664e-21)
(-0.0051971615 0.0021056651 5.3838438e-22)
(-0.0051254948 0.0018852314 4.1945765e-21)
(-0.0050495438 0.0016656675 -1.8404031e-21)
(-0.0048899611 0.0014245198 -1.1443515e-21)
(-0.0047500662 0.0011980203 -1.0286023e-22)
(-0.0044901685 0.00095473127 8.1360787e-22)
(-0.0043272461 0.00074710844 -1.8427085e-21)
(-0.0040297842 0.00053392644 -6.2953418e-21)
(-0.004027251 0.00037147821 -5.6193138e-22)
(-0.0039181444 0.00020700309 3.6001527e-22)
(-0.0047281657 7.4696558e-05 -9.099655e-22)
(-0.0062834504 2.1760048e-05 1.1701625e-24)
(-0.0073479327 1.7938671e-05 -3.3882388e-26)
(-0.0084166021 1.622007e-05 -2.8785923e-25)
(-0.009295257 1.4663319e-05 7.4515065e-25)
(-0.010159274 1.3337252e-05 -3.1966837e-25)
(-0.010892503 1.2152626e-05 -3.480122e-25)
(-0.011603263 1.1157978e-05 7.9038207e-25)
(-0.012225432 1.0292046e-05 -3.6591308e-25)
(-0.012825321 9.5628797e-06 -3.6695096e-25)
(-0.013364866 8.9350747e-06 -3.5548589e-25)
(-0.01388488 8.4008261e-06 2.6427246e-25)
(-0.014363084 7.9365716e-06 1.1458181e-25)
(-0.014824337 7.5268776e-06 2.2669749e-25)
(-0.015254933 7.1469855e-06 -3.1704471e-25)
(-0.015668643 6.7856361e-06 7.7254774e-26)
(-0.01605695 6.4408402e-06 -5.7143264e-25)
(-0.016427043 6.1669043e-06 4.5906562e-25)
(-0.016782419 5.9354613e-06 -1.8701543e-25)
(-0.017124186 5.69328e-06 -3.247023e-25)
(-0.017450408 5.464763e-06 2.8416923e-25)
(-0.017763976 5.2383078e-06 5.4235466e-26)
(-0.018062922 5.0149904e-06 3.9435868e-26)
(-0.018349155 4.7925269e-06 -8.8501343e-27)
(-0.018621313 4.5705028e-06 1.4471917e-25)
(-0.018880565 4.3490763e-06 -5.7890537e-26)
(-0.019126068 4.1299247e-06 -4.9052927e-26)
(-0.019358765 3.9120379e-06 3.1071491e-25)
(-0.019577994 3.692983e-06 4.3897885e-25)
(-0.019784123 3.4840763e-06 -1.5284639e-24)
(-0.019978861 3.2715424e-06 1.2682053e-24)
(-0.020159921 3.0395236e-06 -3.564701e-25)
(-0.020327215 2.7757142e-06 -1.3766193e-24)
(-0.020477669 2.4708395e-06 5.720119e-25)
(-0.020609743 2.1357123e-06 2.1622092e-24)
(-0.020719544 1.8994888e-06 -3.6591011e-25)
(-0.020823675 1.7178675e-06 -6.2947128e-25)
(-0.020913409 1.5006878e-06 -5.7629715e-25)
(-0.020992083 1.3133636e-06 -6.8006949e-25)
(-0.0210601 1.1586488e-06 1.4228468e-24)
(-0.021121059 1.0536268e-06 -7.3291844e-25)
(-0.021177264 1.0062708e-06 -1.0897665e-24)
(-0.021233643 9.4091522e-07 1.7418128e-24)
(-0.02128344 7.4507654e-07 -9.165054e-25)
(-0.021320605 7.0220067e-08 -1.0322489e-24)
(-0.021290118 -6.4299803e-07 1.0091869e-24)
(-0.021239955 -1.0134762e-06 1.7898482e-24)
(-0.021166738 -1.3547253e-06 2.4591062e-25)
(-0.021076762 -1.6417319e-06 -1.5323682e-24)
(-0.020970282 -1.9135302e-06 -1.3054962e-24)
(-0.020848643 -2.1741033e-06 4.324586e-24)
(-0.020711899 -2.426573e-06 -6.884876e-24)
(-0.020560819 -2.671688e-06 5.8832623e-24)
(-0.020395559 -2.9090147e-06 -5.0660359e-24)
(-0.020216729 -3.1389156e-06 2.0004622e-24)
(-0.020024599 -3.360565e-06 9.5475736e-25)
(-0.019819729 -3.5745417e-06 2.4820104e-25)
(-0.019602468 -3.7798563e-06 -1.7983049e-24)
(-0.019373373 -3.9766752e-06 1.1139753e-24)
(-0.019132848 -4.1640403e-06 -1.0669971e-24)