y,gradU_0,gradU_1,gradU_2,gradU_3,gradU_4,gradU_5,gradU_6,gradU_7,gradU_8
1.0002541,-0.0037608024,0,0,1.7187713,0,0,5.5605719e-16,0,0
1.0008359,-0.0018800586,0,0,0.85938327,0,0,5.4945211e-18,0,0
1.0014527,9.2151794e-19,0,0,7.9860783e-17,0,0,-2.6286657e-16,0,0
1.0021064,4.262712e-19,0,0,5.9865038e-18,0,0,9.6717403e-18,0,0
1.0027994,-1.244479e-19,0,0,-1.287625e-16,0,0,1.2594044e-21,0,0
1.0035339,4.7513479e-19,0,0,1.141703e-16,0,0,3.9922893e-16,0,0
1.0043126,2.0925424e-18,0,0,1.2620713e-16,0,0,2.2594672e-17,0,0
1.005138,3.252473e-18,0,0,-1.1731863e-16,0,0,-7.3188705e-16,0,0
1.006013,1.351267e-18,0,0,1.3116628e-19,0,0,-2.6954718e-17,0,0
1.0069405,-1.0488803e-18,0,0,-1.238451e-19,0,0,3.3477391e-16,0,0
1.0079236,-1.3089445e-18,0,0,5.1379578e-17,0,0,6.4572289e-18,0,0
1.0089658,2.9400426e-19,0,0,-4.0072184e-17,0,0,-1.1358953e-20,0,0
1.0100705,-6.3863202e-19,0,0,-1.0248295e-17,0,0,5.3334108e-21,0,0
1.0112415,-1.6857885e-18,0,0,4.2626439e-17,0,0,9.8383472e-21,0,0
1.0124829,4.3284376e-20,0,0,3.8552159e-17,0,0,4.8581042e-18,0,0
1.0137987,-1.771516e-18,0,0,3.6738442e-17,0,0,1.1629629e-16,0,0
1.0151935,-1.5433617e-18,0,0,-3.832572e-17,0,0,2.1223805e-16,0,0
1.0166721,-7.36559e-19,0,0,0,0,0,-2.0082153e-16,0,0
1.0182393,-1.3203556e-18,0,0,1.2290839e-18,0,0,-2.0420406e-16,0,0
1.0199007,6.0927212e-19,0,0,1.2310568e-18,0,0,1.8545384e-18,0,0
1.0216618,-7.0657689e-20,0,0,2.5365868e-17,0,0,-5.4269265e-18,0,0
1.0235286,-1.2016427e-19,0,0,1.4361361e-18,0,0,9.3404923e-17,0,0
1.0255075,3.2838826e-19,0,0,-1.3530126e-18,0,0,1.8484588e-19,0,0
1.0276052,-1.3654241e-18,0,0,2.1645837e-17,0,0,-3.0751266e-18,0,0
1.0298287,-2.3808266e-18,0,0,2.0036121e-17,0,0,1.2913333e-16,0,0
1.0321858,-1.0192187e-18,0,0,2.0120931e-18,0,0,7.3021448e-18,0,0
1.0346843,1.3966552e-18,0,0,-3.7608635e-17,0,0,-1.218228e-16,0,0
1.0373328,1.3342306e-18,0,0,-1.7921473e-17,0,0,-2.3210964e-18,0,0
1.0401402,1.3786564e-18,0,0,1.6649787e-17,0,0,1.0212712e-16,0,0
1.0431162,1.2620591e-18,0,0,1.524879e-17,0,0,7.979559e-18,0,0
1.0462709,-3.8589695e-19,0,0,1.4746767e-17,0,0,-9.646208e-17,0,0
1.0496148,5.4389784e-19,0,0,2.0518881e-18,0,0,-3.4259239e-21,0,0
1.0531596,9.806904e-19,0,0,-1.3129476e-18,0,0,-8.2724296e-17,0,0
1.0569171,7.8318281e-20,0,0,-3.7640656e-19,0,0,-4.6764769e-18,0,0
1.0609001,1.3688929e-18,0,0,-1.2915768e-17,0,0,1.5166509e-16,0,0
1.0651222,1.1263131e-18,0,0,2.2076379e-17,0,0,5.6519887e-18,0,0
1.0695978,-6.179322e-19,0,0,2.3028579e-17,0,0,-6.9369965e-17,0,0
1.074342,-3.4385902e-19,0,0,-9.3894905e-18,0,0,-1.4132201e-18,0,0
1.079371,4.7581754e-19,0,0,-1.0240519e-17,0,0,-2.2936164e-21,0,0
1.0847018,6.6213573e-19,0,0,7.975186e-18,0,0,-2.7512758e-17,0,0
1.0903526,-1.1920324e-18,0,0,8.7376851e-18,0,0,-1.5702539e-18,0,0
1.0963427,-1.086242e-18,0,0,2.1025591e-20,0,0,2.5942927e-17,0,0
1.1026923,-1.5899713e-19,0,0,-7.7015607e-18,0,0,-2.7669332e-22,0,0
1.109423,-4.116682e-19,0,0,-7.2302867e-19,0,0,-5.798061e-23,0,0
1.1165578,-2.516124e-19,0,0,-6.4686421e-18,0,0,-3.2487721e-22,0,0
1.1241208,2.7505723e-19,0,0,-6.9210322e-18,0,0,-1.1854305e-21,0,0
1.1321378,4.7600259e-19,0,0,3.4902814e-19,0,0,-1.7604625e-22,0,0
1.140636,-1.2611615e-20,0,0,4.9257195e-18,0,0,1.5509416e-21,0,0
1.1496443,2.9279224e-19,0,0,5.8011396e-18,0,0,-6.1367505e-17,0,0
1.1591934,-7.2636071e-19,0,0,4.6215396e-18,0,0,-3.423738e-18,0,0
1.1693157,-3.7943205e-19,0,0,-3.87128e-18,0,0,1.6474467e-17,0,0
1.1800455,-6.5132053e-19,0,0,-9.2850275e-18,0,0,-2.3175957e-18,0,0
1.1914194,-1.3355151e-18,0,0,4.1603874e-18,0,0,3.8484732e-17,0,0
1.2034761,-4.9277134e-19,0,0,1.1294261e-17,0,0,1.0961876e-17,0,0
1.2162565,1.0695525e-18,0,0,8.1273544e-19,0,0,8.3312333e-20,0,0
1.229804,1.2984704e-18,0,0,-1.0478379e-17,0,0,1.0674165e-17,0,0
1.2441647,1.1317568e-18,0,0,3.2683327e-18,0,0,2.2445941e-18,0,0
1.2593874,8.9024007e-19,0,0,6.2015517e-18,0,0,-1.992691e-17,0,0
1.2755239,-1.6158768e-19,0,0,1.6537139e-19,0,0,3.5426296e-17,0,0
1.292629,3.753728e-19,0,0,-1.7841629e-20,0,0,2.7713128e-17,0,0
1.3107609,-6.7751478e-19,0,0,1.5498292e-19,0,0,-3.1963022e-17,0,0
1.3299811,-9.3076003e-19,0,0,-7.3647274e-18,0,0,-1.6238393e-17,0,0
1.350355,7.1377764e-19,0,0,1.9205194e-18,0,0,4.7222017e-19,0,0
1.3719519,7.9158749e-19,0,0,2.4447776e-18,0,0,5.63654e-18,0,0
1.3948452,-1.5164385e-19,0,0,-2.3001869e-18,0,0,7.4805396e-19,0,0
1.4191127,-1.7439589e-18,0,0,5.7316416e-18,0,0,-1.2471387e-17,0,0
1.4448368,-2.1209175e-18,0,0,3.1635948e-19,0,0,-5.5250237e-22,0,0
1.472105,7.6990775e-19,0,0,-3.3706267e-18,0,0,3.3137772e-22,0,0
1.5010101,1.4600496e-18,0,0,-8.809442e-20,0,0,3.5758064e-23,0,0
1.5316502,-9.1357427e-19,0,0,-1.0085246e-19,0,0,1.8560631e-17,0,0
1.5641295,-4.1088481e-19,0,0,-1.367397e-18,0,0,1.0613658e-18,0,0
1.5985584,-7.416106e-20,0,0,-1.4612557e-18,0,0,-2.6576039e-17,0,0
1.6350539,-4.4478737e-21,0,0,3.9032956e-18,0,0,-5.5629566e-19,0,0
1.67374,1.7407295e-18,0,0,-8.4858391e-19,0,0,-6.117466e-18,0,0
1.7147484,1.8462099e-18,0,0,-3.6084012e-18,0,0,1.2964874e-17,0,0
1.7582183,2.4614367e-19,0,0,3.2121702e-18,0,0,1.4664249e-17,0,0
1.8042975,-1.2799597e-18,0,0,1.085549e-18,0,0,-1.9203169e-17,0,0
1.8531427,-2.0467734e-18,0,0,-1.8105053e-18,0,0,6.0601991e-18,0,0
1.9049198,-6.7922338e-19,0,0,-1.8329769e-18,0,0,6.2240945e-18,0,0
1.9598049,9.7653117e-19,0,0,6.8727105e-19,0,0,-6.0763117e-18,0,0
2.0179846,-3.8599921e-20,0,0,-9.4670608e-19,0,0,9.0414659e-18,0,0
2.0761642,-9.403262e-20,0,0,-7.5632974e-19,0,0,-6.8492635e-19,0,0
2.1310493,9.9200409e-19,0,0,8.6686327e-19,0,0,-9.5697891e-18,0,0
2.1828264,-3.1048043e-19,0,0,2.3510265e-19,0,0,1.2336233e-22,0,0
2.2316716,-1.2223612e-18,0,0,1.0323102e-19,0,0,2.6500326e-22,0,0
2.2777508,8.6110581e-20,0,0,-2.6709297e-20,0,0,-1.3715557e-17,0,0
2.3212207,1.4313819e-18,0,0,3.4896458e-18,0,0,2.3607827e-19,0,0
2.362229,6.591993e-20,0,0,-1.3737231e-18,0,0,1.4531058e-17,0,0
2.4009152,-1.3820876e-18,0,0,-2.3435202e-18,0,0,1.6998678e-17,0,0
2.4374107,-1.2482887e-19,0,0,4.2859043e-18,0,0,-1.0351021e-18,0,0
2.4718395,6.0976505e-19,0,0,2.8646431e-18,0,0,-6.4257882e-17,0,0
2.5043188,7.602533e-19,0,0,-1.6926379e-18,0,0,-1.6442376e-17,0,0
2.5349589,-9.9493953e-20,0,0,-5.1143155e-18,0,0,5.1969102e-17,0,0
2.5638639,4.4537063e-19,0,0,2.1361249e-19,0,0,2.0436252e-17,0,0
2.5911321,1.4690038e-18,0,0,1.9872922e-18,0,0,-1.0786479e-18,0,0
2.6168562,-9.4788775e-20,0,0,3.0685933e-19,0,0,-3.3131267e-22,0,0
2.6411237,-2.5147841e-19,0,0,2.1546547e-18,0,0,-4.0035493e-23,0,0
2.6640169,7.7834086e-20,0,0,-7.0159396e-18,0,0,1.2815326e-22,0,0
2.6856138,-4.3040057e-19,0,0,-2.1133078e-18,0,0,-6.2102127e-23,0,0
2.7059877,-1.5997509e-20,0,0,4.8449269e-18,0,0,7.9430927e-23,0,0
2.7252079,8.5616141e-19,0,0,-2.7048286e-19,0,0,6.5493769e-23,0,0
2.7433397,1.4811575e-19,0,0,2.7467689e-18,0,0,4.0034666e-17,0,0
2.7604448,5.1858292e-19,0,0,2.4158639e-18,0,0,-2.3746288e-18,0,0
2.7765813,1.8526865e-18,0,0,-6.1500885e-18,0,0,-4.032915e-17,0,0
2.791804,1.1294195e-18,0,0,7.2662366e-19,0,0,1.0591119e-16,0,0
2.8061647,3.5004906e-19,0,0,6.5335691e-18,0,0,-8.6412277e-18,0,0
2.8197122,1.4068641e-18,0,0,4.2305746e-19,0,0,-1.1234952e-16,0,0
2.8324926,7.5136417e-19,0,0,8.7475073e-19,0,0,-4.8889242e-17,0,0
2.8445492,2.2056184e-19,0,0,-8.7597784e-18,0,0,2.969025e-18,0,0
2.8559231,8.7354442e-20,0,0,-4.3250215e-18,0,0,5.1809288e-17,0,0
2.866653,-1.4981491e-18,0,0,9.5190349e-18,0,0,-5.8193747e-17,0,0
2.8767752,-1.0136824e-18,0,0,1.0702283e-17,0,0,3.5255215e-18,0,0
2.8863243,2.2160913e-19,0,0,-3.6804919e-19,0,0,5.8027123e-17,0,0
2.8953326,5.0467082e-19,0,0,-6.4387651e-18,0,0,2.1508673e-19,0,0
2.9038308,-1.1670889e-18,0,0,-6.546785e-18,0,0,3.8826845e-18,0,0
2.9118478,-2.0835787e-18,0,0,3.9568221e-19,0,0,7.7817678e-17,0,0
2.9194108,-1.5410856e-18,0,0,1.5086577e-17,0,0,-4.4447853e-20,0,0
2.9265456,-3.2451825e-19,0,0,-1.5261757e-17,0,0,-1.3390068e-16,0,0
2.9332763,-1.0892823e-18,0,0,-6.860226e-18,0,0,-1.9028546e-18,0,0
2.9396259,-1.0169206e-18,0,0,1.7488299e-17,0,0,2.5060936e-16,0,0
2.9456159,-1.560721e-18,0,0,1.1248717e-17,0,0,-1.1845858e-17,0,0
2.9512667,-1.2747758e-18,0,0,-1.8211873e-17,0,0,-9.7854695e-17,0,0
2.9565976,8.1687161e-19,0,0,-2.0320993e-17,0,0,3.0910367e-16,0,0
2.9616265,6.6148666e-19,0,0,1.9270332e-17,0,0,-1.2880958e-16,0,0
2.9663707,-2.8612444e-19,0,0,6.0874231e-19,0,0,-3.3514064e-16,0,0
2.9708463,-2.7141805e-19,0,0,-2.0775661e-18,0,0,-7.546078e-18,0,0
2.9750684,-5.8100745e-20,0,0,-1.3711587e-17,0,0,8.6556976e-17,0,0
2.9790514,-1.4986814e-18,0,0,4.3819192e-18,0,0,-2.3214498e-17,0,0
2.9828089,7.4716196e-19,0,0,2.4851011e-17,0,0,-9.0671879e-17,0,0
2.9863536,1.466624e-18,0,0,-1.9078723e-17,0,0,1.9157364e-17,0,0
2.9896976,-1.4401803e-18,0,0,-1.3805627e-17,0,0,1.2554734e-23,0,0
2.9928523,-1.8565589e-18,0,0,5.5914015e-18,0,0,1.1847068e-22,0,0
2.9958282,-9.7141642e-19,0,0,-1.4753773e-17,0,0,-7.7940532e-23,0,0
2.9986357,-4.9869194e-19,0,0,-3.4385892e-17,0,0,-1.9815434e-22,0,0
3.0012842,-1.7656616e-19,0,0,-2.0007275e-17,0,0,-1.3809618e-16,0,0
3.0037827,4.1525591e-19,0,0,2.2477235e-17,0,0,-2.4099211e-16,0,0
3.0061397,-2.364513e-19,0,0,-1.9959819e-17,0,0,1.4598677e-16,0,0
3.0083633,-1.2283967e-18,0,0,-2.51768e-17,0,0,2.6513538e-16,0,0
3.010461,6.1857667e-19,0,0,-2.7788636e-17,0,0,1.6320222e-17,0,0
3.0124398,2.7138365e-18,0,0,2.8433218e-18,0,0,1.8356967e-17,0,0
3.0143066,1.3329864e-18,0,0,5.0194628e-17,0,0,3.9090119e-16,0,0
3.0160677,-2.0294724e-19,0,0,0,0,0,-4.2961024e-17,0,0
3.0177291,-5.5031594e-19,0,0,-3.7109284e-18,0,0,-4.1551764e-16,0,0
3.0192964,2.4122768e-19,0,0,-3.9340684e-17,0,0,-6.7661556e-23,0,0
3.0207749,5.5731631e-19,0,0,3.5730804e-17,0,0,-8.9282498e-23,0,0
3.0221698,-7.0744353e-19,0,0,6.6928702e-17,0,0,5.7702759e-16,0,0
3.0234856,-8.6923387e-19,0,0,-8.4613993e-17,0,0,-3.4581231e-17,0,0
3.0247269,-5.4444552e-19,0,0,5.976716e-17,0,0,-1.1017959e-16,0,0
3.0258979,-1.5412173e-19,0,0,8.6976214e-17,0,0,-3.0127384e-17,0,0
3.0270027,-6.9613423e-19,0,0,-5.8575851e-17,0,0,-5.3160922e-16,0,0
3.0280448,-1.1372797e-18,0,0,-5.6016215e-18,0,0,3.5123919e-16,0,0
3.029028,1.0032641e-18,0,0,5.6814234e-17,0,0,-2.1060371e-17,0,0
3.0299554,7.6900856e-19,0,0,-3.4064652e-18,0,0,-3.7231767e-16,0,0
3.0308304,-1.6388362e-18,0,0,-6.0220323e-17,0,0,-8.3679595e-16,0,0
3.0316558,-1.030872e-18,0,0,-1.2784727e-16,0,0,-3.8393887e-17,0,0
3.0324345,-3.1764792e-19,0,0,7.144501e-17,0,0,8.9232315e-16,0,0
3.0331691,1.2949514e-18,0,0,5.5634226e-17,0,0,9.4127004e-16,0,0
3.033862,1.6940195e-18,0,0,-1.4364919e-16,0,0,-5.0885725e-17,0,0
3.0345158,1.4430688e-19,0,0,9.4886802e-18,0,0,5.3894382e-17,0,0
3.0351325,-1.5798429e-19,0,0,-0.85936298,0,0,-5.7173589e-17,0,0
3.0357143,-1.572258e-19,0,0,-1.7187244,0,0,-2.0184873e-15,0,0
