y,I01,I02
0,0.048049978,-0.048049933
0.00086769924,0.024024993,-0.02402497
0.0017874829,1.6260839e-29,-1.6260351e-29
0.0027624773,7.8516142e-30,-7.8512811e-30
0.0037959966,9.4521309e-31,-9.4488671e-31
0.0048915537,1.3793316e-30,-1.3782942e-30
0.0060528726,2.2548368e-30,-2.2537384e-30
0.0072839007,3.5184547e-30,-3.5183309e-30
0.0085888223,3.5530121e-30,-3.5527136e-30
0.0099720729,1.469853e-30,-1.4684064e-30
0.011438354,3.6337505e-30,-3.6325204e-30
0.01299265,6.8251345e-30,-6.8248626e-30
0.014640245,3.3119774e-30,-3.3114971e-30
0.016386737,1.8676886e-31,-1.8652722e-31
0.018238064,1.7826855e-30,-1.7826035e-30
0.020200518,2.9602323e-30,-2.9600075e-30
0.022280771,2.3501667e-30,-2.3498895e-30
0.024485892,2.0021507e-30,-2.0017727e-30
0.026823378,2.2495021e-30,-2.2482517e-30
0.029301173,1.6234174e-30,-1.6223469e-30
0.0319277,1.9648675e-30,-1.9646184e-30
0.034711887,2.214157e-30,-2.2136797e-30
0.037663197,6.2061184e-31,-6.1824377e-31
0.040791661,5.9935746e-33,-3.8944293e-33
0.044107915,3.6504905e-32,-3.627212e-32
0.047623229,1.5028562e-30,-1.5024567e-30
0.051349553,2.7576038e-30,-2.7561624e-30
0.055299553,2.1017682e-30,-2.1003911e-30
0.059486654,1.4589056e-30,-1.4579436e-30
0.06392509,6.7694534e-31,-6.7606426e-31
0.068629948,3.1474786e-32,-3.1390147e-32
0.073617218,7.4857183e-32,-7.4225622e-32
0.078903853,1.8336321e-31,-1.8179579e-31
0.084507823,1.6232178e-31,-1.6125826e-31
0.090448176,1.0646953e-31,-1.0621255e-31
0.096745104,1.166571e-31,-1.1633935e-31
0.10342001,1.4541444e-31,-1.4520537e-31
0.11049558,1.1488194e-31,-1.1450688e-31
0.11799587,2.2625105e-31,-2.2546717e-31
0.12594638,3.6962987e-31,-3.6857565e-31
0.13437411,1.806522e-31,-1.7996311e-31
0.14330773,1.6773754e-32,-1.6040514e-32
0.1527776,1.4438515e-32,-1.3732587e-32
0.1628159,2.023034e-32,-2.0095828e-32
0.17345677,1.8556454e-32,-1.6908147e-32
0.18473635,2.0460982e-32,-1.7322835e-32
0.19669301,6.8610859e-32,-6.6847345e-32
0.20936737,9.7166182e-32,-9.6566665e-32
0.22280253,4.8853184e-32,-4.8436348e-32
0.23704414,4.925019e-33,-4.5868179e-33
0.25214061,6.9529794e-33,-6.006895e-33
0.26814327,8.0039129e-33,-7.2742367e-33
0.28510649,2.9142176e-32,-2.893908e-32
0.30308795,5.3460639e-32,-5.2455754e-32
0.32214876,2.9180182e-32,-2.8142124e-32
0.34235371,3.0995904e-33,-2.9258724e-33
0.36377149,2.2767532e-33,-2.2364093e-33
0.38647488,6.5159081e-32,-6.5018723e-32
0.41054106,1.2326216e-31,-1.2299221e-31
0.43605183,8.1953819e-32,-8.1157716e-32
0.46309391,2.9560636e-32,-2.8048612e-32
0.49175922,2.4711935e-32,-2.3515233e-32
0.52214518,2.3154293e-32,-2.2811463e-32
0.55435509,1.4029175e-32,-1.2110858e-32
0.58849842,1.2223857e-32,-9.9203004e-33
0.62469124,1.0899693e-32,-9.8431488e-33
0.66305656,1.5120209e-32,-1.2732396e-32
0.70372479,8.2737792e-33,-6.5280972e-33
0.74683417,1.4873839e-33,-7.7722003e-34
0.79253123,1.6365537e-33,-7.5122504e-34
0.84097128,2.1462152e-33,-1.9637593e-33
0.87299488,2.2078754e-33,-1.9093383e-33
0.89232374,2.2360805e-33,-1.8614599e-33
0.94676656,2.0689431e-32,-1.9856516e-32
1.0044767,5.7507914e-32,-5.6605595e-32
1.06565,5.3677419e-32,-5.3223781e-32
1.1304945,1.4823353e-32,-1.4575848e-32
1.1992303,6.0630429e-33,-5.767615e-33
1.2720909,1.0792117e-32,-1.0238801e-32
1.3493237,5.5523024e-33,-4.8714645e-33
1.4311909,1.5998526e-33,-2.5253949e-34
1.5179707,1.6278268e-33,-2.7177321e-34
1.6047488,3.6347449e-34,-1.4683953e-34
1.6866113,5.8686576e-34,-2.4858643e-34
1.7437929,6.1758903e-33,-5.3678671e-33
1.7638596,7.9870492e-33,-6.9986011e-33
1.8367875,1.7505437e-32,-1.6226261e-32
1.9055761,9.9634232e-33,-9.2526658e-33
1.9704609,1.0204002e-32,-9.514729e-33
2.0316638,1.9701428e-32,-1.8938413e-32
2.0893941,1.0003032e-32,-9.7607631e-33
2.1438492,1.1904948e-32,-1.1278937e-32
2.1952152,1.2254734e-32,-1.1002886e-32
2.2436676,1.5466955e-32,-1.4382202e-32
2.289372,1.5190088e-32,-1.4115137e-32
2.3324844,1.8773315e-33,-1.21136e-33
2.3731519,1.5701186e-33,-1.392396e-33
2.4115135,1.8421596e-33,-1.4766705e-33
2.4477001,6.3527892e-32,-6.3269437e-32
2.481835,1.2647007e-31,-1.2634273e-31
2.5140348,6.6326438e-32,-6.5861491e-32
2.5444093,3.1268841e-33,-2.3566905e-33
2.573062,5.2991992e-34,-9.6602705e-39
2.5828764,4.7718708e-34,-1.0078205e-38
2.6000986,1.0740848e-33,-6.8401633e-34
2.6256058,4.9421634e-33,-4.2832036e-33
2.6496662,7.6995353e-32,-7.6555817e-32
2.6723619,1.5268834e-31,-1.5221488e-31
2.6937705,1.383288e-31,-1.3771069e-31
2.713965,1.6896295e-31,-1.6854115e-31
2.7330143,3.1614989e-31,-3.1579947e-31
2.7509836,3.162378e-31,-3.1585363e-31
2.7679341,2.6981205e-31,-2.6922998e-31
2.7839236,2.6417014e-31,-2.6367494e-31
2.7990067,1.1281947e-31,-1.1248952e-31
2.8132348,4.5554453e-31,-4.5500226e-31
2.8266564,1.9518545e-30,-1.9507492e-30
2.8393174,2.2107123e-30,-2.2090225e-30
2.8512607,7.2342679e-31,-7.2080559e-31
2.8625272,1.9073456e-31,-1.890079e-31
2.8731552,4.6165411e-31,-4.6140125e-31
2.8831809,5.189674e-31,-5.1830137e-31
2.8926385,1.8016845e-30,-1.8010999e-30
2.9015602,4.8377093e-30,-4.8371142e-30
2.9099764,3.721546e-30,-3.7207953e-30
2.9179158,1.586079e-30,-1.585793e-30
2.9254053,1.1603932e-30,-1.160197e-30
2.9324705,4.6777317e-31,-4.6714695e-31
2.9391354,5.1126524e-30,-5.1117452e-30
2.9454227,9.8181737e-30,-9.8171342e-30
2.9513538,5.5229355e-30,-5.5219245e-30
2.956949,1.8052441e-30,-1.8046165e-30
2.9622271,4.2437989e-30,-4.2434296e-30
2.9672063,6.8116868e-30,-6.8114954e-30
2.9719035,1.0127482e-29,-1.0127305e-29
2.9763345,6.1236697e-30,-6.123195e-30
2.9805146,8.622761e-32,-8.5629538e-32
2.9844579,2.1464343e-31,-2.1398745e-31
2.9881778,3.4124985e-31,-3.4038606e-31
2.9916871,2.56807e-31,-2.5589689e-31
2.9949976,2.7433964e-31,-2.7356916e-31
2.9981205,1.469238e-29,-1.4691927e-29
3.0010666,3.0787435e-29,-3.0785333e-29
3.0038458,2.2482577e-29,-2.2480561e-29
3.0064677,1.2915259e-29,-1.291502e-29
3.008941,1.2410541e-29,-1.2410291e-29
3.0112742,1.1879866e-29,-1.1879608e-29
3.0134753,3.3779034e-29,-3.377879e-29
3.0155518,2.7772111e-29,-2.7771979e-29
3.0175106,8.501768e-30,-8.5011892e-30
3.0193585,4.622938e-29,-4.6228677e-29
3.0211018,1.4080086e-28,-1.4079996e-28
3.0227463,1.744045e-28,-1.7440326e-28
3.0242977,7.2495136e-29,-7.2494254e-29
3.0257612,7.038178e-30,-7.0377809e-30
3.0271418,3.6439021e-29,-3.6438368e-29
3.0284443,5.0405476e-29,-5.040448e-29
3.029673,6.1059238e-29,-6.1058328e-29
3.0308321,4.9032751e-29,-4.9031843e-29
3.0319256,9.0260435e-30,-9.0255741e-30
3.0329571,3.6525867e-30,-3.6523988e-30
3.0339302,4.3665438e-29,-4.3665264e-29
3.0348483,0.024025029,-0.024025029
3.0357143,0.04805,-0.04805
