/*--------------------------------*- C++ -*----------------------------------*\
| =========                 |                                                 |
| \\      /  F ield         | OpenFOAM: The Open Source CFD Toolbox           |
|  \\    /   O peration     | Version:  2.4.0                                 |
|   \\  /    A nd           | Web:      www.OpenFOAM.org                      |
|    \\/     M anipulation  |                                                 |
\*---------------------------------------------------------------------------*/
FoamFile
{
    version     2.0;
    format      ascii;
    class       volScalarField;
    location    "500";
    object      nut;
}
// * * * * * * * * * * * * * * * * * * * * * * * * * * * * * * * * * * * * * //

dimensions      [0 2 -1 0 0 0 0];

internalField   nonuniform List<scalar> 
32000
(
4.3846485e-11
2.6214157e-11
6.2212699e-11
3.1093072e-11
1.877791e-11
2.2162171e-13
3.4045457e-12
7.6957249e-12
4.1265194e-12
2.6430635e-12
1.4278142e-12
1.1453468e-12
9.073135e-13
8.1392788e-13
6.9511504e-13
6.1782841e-13
5.241646e-13
4.8105014e-13
4.5940191e-13
4.5421869e-13
4.7306433e-13
5.1191139e-13
5.7672377e-13
6.7657311e-13
8.0884542e-13
9.9207714e-13
1.1997608e-12
1.4253629e-12
1.6629824e-12
1.9149062e-12
2.1674299e-12
2.4107249e-12
2.6384175e-12
2.8049252e-12
2.927377e-12
2.9949319e-12
3.0596209e-12
3.0874503e-12
3.064694e-12
2.9515924e-12
2.8030506e-12
2.522428e-12
2.2906031e-12
1.9123216e-12
1.8232469e-12
1.6002101e-12
2.8388452e-12
5.4753199e-12
7.4466967e-12
9.9155963e-12
1.1971671e-11
1.4199443e-11
1.6153796e-11
1.8148585e-11
1.9966427e-11
2.1774432e-11
2.346313e-11
2.5119644e-11
2.6686255e-11
2.8206384e-11
2.9647672e-11
3.1030056e-11
3.2333975e-11
3.3567096e-11
3.471672e-11
3.5784141e-11
3.6760607e-11
3.7645137e-11
3.8432493e-11
3.9121976e-11
3.9711042e-11
4.0199664e-11
4.0586889e-11
4.0873549e-11
4.1060342e-11
4.1149232e-11
4.1139947e-11
4.1033563e-11
4.0832699e-11
4.0540812e-11
4.0161635e-11
3.9700084e-11
3.9161397e-11
3.8550318e-11
3.787119e-11
3.7129669e-11
3.6330007e-11
3.5477099e-11
3.4578522e-11
3.3639427e-11
3.2664929e-11
3.166054e-11
3.0631073e-11
2.9582809e-11
2.8520845e-11
2.7449705e-11
2.6374393e-11
2.5298052e-11
2.4224849e-11
2.3160626e-11
2.2108082e-11
2.1068676e-11
2.0046416e-11
1.9043527e-11
1.8062073e-11
1.7104652e-11
1.6172866e-11
1.5267982e-11
1.4391416e-11
1.3543988e-11
1.2726302e-11
1.1939107e-11
1.118268e-11
1.0457858e-11
9.7645615e-12
9.1026889e-12
8.472227e-12
7.8730178e-12
7.3044531e-12
6.7664133e-12
6.2579431e-12
5.7784184e-12
5.3267321e-12
4.9027259e-12
4.50478e-12
4.1329742e-12
3.7852804e-12
3.4620262e-12
3.1608242e-12
2.882416e-12
2.623732e-12
2.386139e-12
2.1657055e-12
1.9651461e-12
1.7792914e-12
1.612084e-12
1.4567221e-12
1.319144e-12
1.1905452e-12
1.0794078e-12
9.7412851e-13
8.8653148e-13
8.010946e-13
7.3438913e-13
6.657192e-13
6.1807758e-13
5.6371862e-13
5.3439732e-13
4.9268641e-13
4.8282297e-13
4.5436841e-13
4.6952769e-13
4.5890016e-13
5.0970033e-13
5.9353114e-13
6.0257284e-13
6.2672529e-13
5.871735e-13
5.5337452e-13
4.8173522e-13
4.160619e-13
3.3480636e-13
2.6339443e-13
1.9455104e-13
2.4590399e-13
3.668669e-13
5.5989105e-13
8.4963935e-13
1.2625213e-12
1.8186075e-12
2.5449182e-12
3.4422446e-12
4.5328683e-12
5.7509712e-12
7.0251872e-12
8.2748035e-12
9.5921811e-12
1.1067404e-11
1.2636635e-11
1.441054e-11
1.6425346e-11
1.8829926e-11
2.1789219e-11
2.5979757e-11
3.2460876e-11
4.0935411e-11
5.3004431e-11
6.8953942e-11
9.3144549e-11
1.2673649e-10
1.8055166e-10
2.5115863e-10
3.4832157e-10
3.9401075e-10
3.5081024e-10
2.2452253e-10
1.3734074e-10
5.4705618e-11
4.1295377e-11
9.452838e-12
1.4060534e-10
1.400997e-10
1.6068694e-10
1.0980194e-10
6.4787418e-11
1.9356201e-11
7.3933497e-12
7.8866911e-12
4.2302688e-12
2.7833466e-12
1.5886867e-12
1.2852335e-12
1.0466832e-12
9.524782e-13
8.4077044e-13
7.6988843e-13
6.8461828e-13
6.5381852e-13
6.4988158e-13
6.678596e-13
7.15795e-13
7.9112151e-13
9.0008412e-13
1.0396452e-12
7.4472095e-13
2.3012047e-12
1.1222747e-12
1.3554808e-12
1.6153754e-12
1.9121463e-12
2.2328538e-12
2.5826908e-12
7.0261796e-12
3.4354396e-12
5.6016439e-12
6.174994e-12
6.8306421e-12
7.5258178e-12
8.2268208e-12
8.8627603e-12
9.4456583e-12
9.8229048e-12
1.010331e-11
1.0034971e-11
1.0063595e-11
9.8896349e-12
1.1657897e-11
1.7336891e-11
2.1845193e-11
2.675666e-11
3.1270632e-11
3.5797947e-11
4.0147529e-11
4.4408534e-11
4.8575443e-11
5.2663111e-11
5.6686648e-11
6.0650333e-11
6.4558637e-11
6.8412487e-11
7.2205993e-11
7.5937076e-11
7.9595558e-11
8.3174821e-11
8.6664265e-11
9.005432e-11
9.3334099e-11
9.6494374e-11
9.9525575e-11
1.0242049e-10
1.0517185e-10
1.0777363e-10
1.1022027e-10
1.1250725e-10
1.1463222e-10
1.1659311e-10
1.1838621e-10
1.2000767e-10
1.2145764e-10
1.2273572e-10
1.2384353e-10
1.2478351e-10
1.2555941e-10
1.2617561e-10
1.2663356e-10
1.2693983e-10
1.2709776e-10
1.2711067e-10
1.2698921e-10
1.2673713e-10
1.2636252e-10
1.2587095e-10
1.2526854e-10
1.2456594e-10
1.2376826e-10
1.2287765e-10
1.2190862e-10
1.2085779e-10
1.1973308e-10
1.1856322e-10
1.173598e-10
1.1608312e-10
1.1476844e-10
1.1341605e-10
1.1203084e-10
1.1061848e-10
1.0918381e-10
1.0773034e-10
1.0626192e-10
1.0478151e-10
1.032909e-10
1.0179313e-10
1.0028872e-10
9.878181e-11
9.7274583e-11
9.5768625e-11
9.426637e-11
9.2770145e-11
9.1280826e-11
8.9800667e-11
8.8330717e-11
8.6870588e-11
8.5418811e-11
8.3976612e-11
8.2542229e-11
8.1117952e-11
7.9700601e-11
7.8292684e-11
7.6890927e-11
7.5498145e-11
7.4108578e-11
7.2726967e-11
7.134117e-11
6.9960712e-11
6.8570462e-11
6.7184765e-11
6.5779272e-11
6.4376396e-11
6.2941191e-11
6.1507253e-11
6.002424e-11
5.8542049e-11
5.6984929e-11
5.5424648e-11
5.3751019e-11
5.2067261e-11
5.0219043e-11
4.8348575e-11
4.6244379e-11
4.408784e-11
4.1612888e-11
3.8997805e-11
3.5805026e-11
3.2145022e-11
3.1912552e-11
3.2583774e-11
3.3520723e-11
3.4399909e-11
3.5111959e-11
3.5628092e-11
3.5952812e-11
3.6145777e-11
3.6219861e-11
3.6246014e-11
3.6397896e-11
3.6798115e-11
3.7363169e-11
3.8060944e-11
3.8884623e-11
3.985629e-11
4.0981888e-11
4.2259624e-11
4.3764484e-11
4.510149e-11
4.6099663e-11
4.6677167e-11
4.7404185e-11
4.8292061e-11
4.9253729e-11
5.0460757e-11
5.1955224e-11
5.4035061e-11
5.6688678e-11
6.1687076e-11
7.0174924e-11
8.1423896e-11
9.7111268e-11
1.1775311e-10
8.5758581e-11
3.4010051e-10
1.6130747e-10
5.8123445e-10
5.1146943e-10
5.6711621e-10
7.8803445e-10
5.9601602e-10
3.9073884e-10
1.4550336e-10
1.167905e-10
9.4754482e-11
2.4533822e-09
2.7890828e-09
2.5642538e-09
1.9769002e-09
1.1584064e-09
4.53352e-10
1.084712e-10
2.2265668e-11
1.1564072e-11
9.0737953e-12
6.8188616e-12
5.7609003e-12
5.2130835e-12
4.9881149e-12
4.8755977e-12
4.8447448e-12
4.8208976e-12
5.0054916e-12
5.3588643e-12
5.8752912e-12
6.5848787e-12
7.514501e-12
8.6833719e-12
9.819007e-12
4.372339e-12
2.9082107e-11
6.7145917e-12
8.53071e-12
1.0672422e-11
1.3403833e-11
1.6650496e-11
2.0857964e-11
9.883464e-11
3.2945999e-11
7.4663251e-11
8.6654016e-11
1.008566e-10
1.1672056e-10
1.3372435e-10
1.5098275e-10
1.6769428e-10
1.8216405e-10
1.9338599e-10
1.9926123e-10
2.0170769e-10
2.0198261e-10
2.1921067e-10
3.0122433e-10
3.6871231e-10
4.3592005e-10
5.0189537e-10
5.6479433e-10
6.2889583e-10
6.9010547e-10
7.5258699e-10
8.1339e-10
8.7503401e-10
9.3589899e-10
9.9723092e-10
1.058194e-09
1.1192887e-09
1.180072e-09
1.2406903e-09
1.3008359e-09
1.3605096e-09
1.4194599e-09
1.4776028e-09
1.53474e-09
1.590749e-09
1.6454735e-09
1.6987921e-09
1.7505632e-09
1.8006747e-09
1.8490032e-09
1.8954795e-09
1.9400164e-09
1.9825261e-09
2.022902e-09
2.0610956e-09
2.0970295e-09
2.130668e-09
2.1619719e-09
2.1909262e-09
2.2175403e-09
2.2417632e-09
2.263637e-09
2.2831601e-09
2.3003095e-09
2.3151893e-09
2.3277863e-09
2.3381902e-09
2.3464235e-09
2.3525357e-09
2.3566538e-09
2.3587982e-09
2.35893e-09
2.3572932e-09
2.3537454e-09
2.3483913e-09
2.341794e-09
2.3341737e-09
2.3245644e-09
2.3137192e-09
2.3016011e-09
2.2882842e-09
2.2738517e-09
2.2583861e-09
2.2419451e-09
2.2245917e-09
2.2063797e-09
2.1873392e-09
2.1675272e-09
2.1469508e-09
2.1256908e-09
2.1038006e-09
2.0813196e-09
2.0583054e-09
2.0348162e-09
2.0108847e-09
1.9865663e-09
1.9619049e-09
1.9369035e-09
1.9115494e-09
1.8858747e-09
1.8598697e-09
1.833587e-09
1.8069914e-09
1.7801359e-09
1.7529901e-09
1.7256061e-09
1.6979084e-09
1.6699819e-09
1.6416177e-09
1.6129871e-09
1.5838347e-09
1.5544218e-09
1.5243074e-09
1.4939038e-09
1.4625595e-09
1.4309006e-09
1.3979671e-09
1.3647044e-09
1.3296298e-09
1.2941114e-09
1.2559554e-09
1.2171463e-09
1.1745865e-09
1.1310087e-09
1.082157e-09
1.0314429e-09
9.7357591e-10
9.1154342e-10
8.3640795e-10
7.4911143e-10
7.4209548e-10
7.5782138e-10
7.7951717e-10
8.011082e-10
8.1863303e-10
8.3227778e-10
8.4128408e-10
8.4748459e-10
8.5068328e-10
8.5269829e-10
8.5531539e-10
8.6240574e-10
8.7192833e-10
8.8265584e-10
8.9391487e-10
9.0582984e-10
9.1800755e-10
9.3039882e-10
9.4430303e-10
9.5170083e-10
9.5001932e-10
9.3897031e-10
9.3014727e-10
9.219843e-10
9.1371131e-10
9.0719079e-10
9.0270762e-10
9.0432817e-10
9.0858568e-10
9.438587e-10
1.016103e-09
1.1140636e-09
1.2455153e-09
1.426585e-09
5.0540245e-10
4.8678071e-09
8.8163025e-10
7.3051115e-09
4.4837102e-09
4.8064126e-09
9.6291732e-09
8.4272468e-09
5.8019587e-09
2.358427e-09
1.9407385e-09
2.0501987e-09
2.1221078e-08
2.4271253e-08
2.2066993e-08
1.7123287e-08
1.0042013e-08
3.9853285e-09
9.3878873e-10
1.4367984e-10
7.2623348e-11
6.0749001e-11
4.9293195e-11
4.2064569e-11
3.88919e-11
3.7564081e-11
3.7364526e-11
3.7603257e-11
3.8001826e-11
3.9857806e-11
4.3021356e-11
4.7480173e-11
5.3445834e-11
6.1179909e-11
7.0798783e-11
7.9540327e-11
3.4999879e-11
2.392266e-10
5.3121445e-11
6.8676288e-11
8.6582455e-11
1.0970307e-10
1.3752283e-10
1.7561022e-10
8.0824532e-10
2.7897511e-10
6.3854973e-10
7.4166575e-10
8.659045e-10
1.0049644e-09
1.1543859e-09
1.3066434e-09
1.4543655e-09
1.5832551e-09
1.6833421e-09
1.7373465e-09
1.7593904e-09
1.7630082e-09
1.9059546e-09
2.609133e-09
3.1883454e-09
3.7623511e-09
4.328064e-09
4.8656784e-09
5.4155066e-09
5.9396743e-09
6.4760651e-09
6.9977588e-09
7.5275395e-09
8.0506576e-09
8.5784037e-09
9.1031808e-09
9.6295819e-09
1.0153603e-08
1.0676655e-08
1.1195994e-08
1.1711713e-08
1.2221603e-08
1.2724988e-08
1.3220139e-08
1.370602e-08
1.4181269e-08
1.4644842e-08
1.5095502e-08
1.5532274e-08
1.5954075e-08
1.6360296e-08
1.6750153e-08
1.7122867e-08
1.7477521e-08
1.7813673e-08
1.8130623e-08
1.8428035e-08
1.8705534e-08
1.8962953e-08
1.9200343e-08
1.941723e-08
1.9613942e-08
1.9790439e-08
1.9946483e-08
2.0082939e-08
2.0199653e-08
2.0297377e-08
2.0376271e-08
2.0436735e-08
2.0479825e-08
2.0505744e-08
2.0514034e-08
2.0506853e-08
2.0482921e-08
2.0443121e-08
2.0392351e-08
2.0332534e-08
2.0255184e-08
2.0166871e-08
2.006726e-08
1.9956988e-08
1.9836765e-08
1.9707303e-08
1.9569102e-08
1.9422703e-08
1.9268573e-08
1.9106973e-08
1.8938397e-08
1.8762906e-08
1.8581203e-08
1.8393757e-08
1.8200915e-08
1.8003182e-08
1.7801071e-08
1.7594872e-08
1.7385073e-08
1.7172065e-08
1.695588e-08
1.6736414e-08
1.6513949e-08
1.6288412e-08
1.6060263e-08
1.5829209e-08
1.5595711e-08
1.5359521e-08
1.5121089e-08
1.4879773e-08
1.4636312e-08
1.4388897e-08
1.4139015e-08
1.3884458e-08
1.3627494e-08
1.3364298e-08
1.3098451e-08
1.282429e-08
1.2547261e-08
1.2259009e-08
1.1967761e-08
1.1660599e-08
1.1349435e-08
1.1015138e-08
1.0674993e-08
1.0301978e-08
9.9198966e-09
9.4916165e-09
9.0468286e-09
8.5393763e-09
7.9951652e-09
7.336431e-09
6.5715194e-09
6.5107822e-09
6.6492539e-09
6.8399373e-09
7.0301397e-09
7.184583e-09
7.3052287e-09
7.385144e-09
7.4405285e-09
7.4695173e-09
7.4881638e-09
7.5114474e-09
7.5733357e-09
7.6557651e-09
7.7480182e-09
7.8440781e-09
7.944914e-09
8.0468878e-09
8.1496358e-09
8.2640611e-09
8.3202203e-09
8.2965494e-09
8.1916747e-09
8.1063701e-09
8.0256643e-09
7.9435088e-09
7.875553e-09
7.8241675e-09
7.8239263e-09
7.8444215e-09
8.1301007e-09
8.7240235e-09
9.5303323e-09
1.0604802e-08
1.2178985e-08
3.9222674e-09
4.1281387e-08
6.93543e-09
6.0309188e-08
3.6373599e-08
3.8259362e-08
7.8460159e-08
7.0171612e-08
4.8679206e-08
2.0401658e-08
1.6739779e-08
1.7912355e-08
1.0969382e-07
1.2557182e-07
1.1390353e-07
8.855615e-08
5.2050064e-08
2.0773983e-08
4.9196356e-09
7.2529598e-10
3.6041688e-10
3.0354666e-10
2.4878572e-10
2.1253253e-10
1.9693982e-10
1.9040039e-10
1.8976344e-10
1.9126716e-10
1.9360998e-10
2.03231e-10
2.1949219e-10
2.4235646e-10
2.7288818e-10
3.1245589e-10
3.6160154e-10
4.0488582e-10
1.9128341e-10
1.1384675e-09
2.8691149e-10
3.7458191e-10
4.7328148e-10
6.011423e-10
7.5564396e-10
9.743465e-10
3.8202831e-09
1.5319771e-09
3.3170966e-09
3.8469718e-09
4.4931192e-09
5.2165253e-09
5.994285e-09
6.7873506e-09
7.5572048e-09
8.2296826e-09
8.7521492e-09
9.0349577e-09
9.1498484e-09
9.1682096e-09
9.9022353e-09
1.3550539e-08
1.6547786e-08
1.9519228e-08
2.2448296e-08
2.523001e-08
2.807564e-08
3.0787242e-08
3.3562496e-08
3.6260997e-08
3.9001508e-08
4.1707171e-08
4.4436852e-08
4.7151015e-08
4.9873661e-08
5.2584002e-08
5.528948e-08
5.7975912e-08
6.0643877e-08
6.3281991e-08
6.588684e-08
6.8449527e-08
7.0964758e-08
7.3425536e-08
7.5826509e-08
7.8161301e-08
8.0424914e-08
8.2611753e-08
8.4718683e-08
8.6741624e-08
8.8676607e-08
9.0518873e-08
9.2266122e-08
9.3914704e-08
9.5462838e-08
9.690855e-08
9.8250918e-08
9.9490163e-08
1.0062376e-07
1.0165336e-07
1.0257869e-07
1.0339844e-07
1.0411704e-07
1.0473359e-07
1.0525193e-07
1.0567283e-07
1.0599827e-07
1.0623357e-07
1.0638007e-07
1.0643496e-07
1.0640938e-07
1.0629682e-07
1.0610169e-07
1.0584935e-07
1.0554986e-07
1.0515908e-07
1.0471101e-07
1.0420395e-07
1.0364114e-07
1.0302627e-07
1.0236302e-07
1.0165395e-07
1.0090187e-07
1.0010921e-07
9.9277302e-08
9.8408719e-08
9.7503774e-08
9.6566121e-08
9.5598196e-08
9.4601804e-08
9.3579589e-08
9.253421e-08
9.1467199e-08
9.0381096e-08
8.9277949e-08
8.8157939e-08
8.7020537e-08
8.5867225e-08
8.4697636e-08
8.3514174e-08
8.2315334e-08
8.1103521e-08
7.9877462e-08
7.8639513e-08
7.7386353e-08
7.6121834e-08
7.4836568e-08
7.3538296e-08
7.2215551e-08
7.0880138e-08
6.9512175e-08
6.8130305e-08
6.6705084e-08
6.5264847e-08
6.376615e-08
6.2251803e-08
6.0654616e-08
5.9036575e-08
5.7298166e-08
5.5529334e-08
5.3589506e-08
5.1602555e-08
4.9375295e-08
4.7062253e-08
4.4423266e-08
4.1593339e-08
3.8169277e-08
3.4197452e-08
3.3887941e-08
3.461091e-08
3.5605187e-08
3.6597584e-08
3.7403708e-08
3.8034261e-08
3.8452944e-08
3.8744023e-08
3.8897693e-08
3.8997928e-08
3.9122375e-08
3.9446084e-08
3.9874287e-08
4.0352276e-08
4.0848889e-08
4.1369048e-08
4.1893592e-08
4.2420999e-08
4.3005791e-08
4.3284594e-08
4.3148815e-08
4.2595813e-08
4.2146997e-08
4.1720085e-08
4.1285815e-08
4.0925049e-08
4.0650486e-08
4.0640014e-08
4.0741239e-08
4.2219123e-08
4.5273388e-08
4.9417665e-08
5.4910783e-08
6.3392162e-08
2.0936666e-08
1.9680132e-07
3.7731136e-08
2.8194291e-07
1.8482158e-07
1.9074214e-07
3.6428275e-07
3.3006732e-07
2.3066023e-07
1.0567445e-07
8.6433717e-08
9.279414e-08
4.1139903e-07
4.7125411e-07
4.2667217e-07
3.3262565e-07
1.9635549e-07
7.897746e-08
1.8885563e-08
2.7683711e-09
1.3535951e-09
1.1393193e-09
9.358801e-10
7.9956156e-10
7.4098306e-10
7.1642282e-10
7.1427761e-10
7.2021493e-10
7.2919726e-10
7.6532262e-10
8.26407e-10
9.123461e-10
1.0271312e-09
1.1759504e-09
1.3607919e-09
1.522649e-09
8.0407171e-10
3.7891462e-09
1.195015e-09
1.5677343e-09
1.9811214e-09
2.5169239e-09
3.1648489e-09
4.0970269e-09
1.2822463e-08
6.3544897e-09
1.2593471e-08
1.4597153e-08
1.7051104e-08
1.9798586e-08
2.2753853e-08
2.5768623e-08
2.8696483e-08
3.125565e-08
3.3244765e-08
3.4322062e-08
3.4756372e-08
3.4818857e-08
3.756399e-08
5.1405935e-08
6.2712843e-08
7.3938543e-08
8.4999016e-08
9.5494755e-08
1.0622917e-07
1.1645169e-07
1.269119e-07
1.3707845e-07
1.4740109e-07
1.5758948e-07
1.6786655e-07
1.7808334e-07
1.883309e-07
1.9853129e-07
2.0871306e-07
2.1882326e-07
2.2886459e-07
2.3879469e-07
2.4860123e-07
2.5825111e-07
2.6772495e-07
2.7699676e-07
2.860468e-07
2.9485137e-07
3.0339192e-07
3.1164761e-07
3.1960677e-07
3.2725446e-07
3.3457597e-07
3.4155304e-07
3.4817692e-07
3.5443375e-07
3.6031662e-07
3.6581787e-07
3.709337e-07
3.7566466e-07
3.8000088e-07
3.8394817e-07
3.875051e-07
3.9066626e-07
3.9344813e-07
3.9584644e-07
3.9787552e-07
3.9953771e-07
4.0084006e-07
4.0180147e-07
4.0242885e-07
4.0270939e-07
4.0268387e-07
4.0232912e-07
4.0166053e-07
4.0077363e-07
3.9970716e-07
3.9829334e-07
3.9666028e-07
3.948016e-07
3.9272942e-07
3.904575e-07
3.8799965e-07
3.8536554e-07
3.8256574e-07
3.7960933e-07
3.7650145e-07
3.7325174e-07
3.6986143e-07
3.6634433e-07
3.6270972e-07
3.5896449e-07
3.5511872e-07
3.5118254e-07
3.4716184e-07
3.4306634e-07
3.3890389e-07
3.3467529e-07
3.3037863e-07
3.260196e-07
3.2159691e-07
3.1711978e-07
3.1258259e-07
3.0799456e-07
3.0335097e-07
2.9866084e-07
2.9391166e-07
2.8911816e-07
2.842448e-07
2.7932101e-07
2.7430337e-07
2.6923677e-07
2.640458e-07
2.5880134e-07
2.5339162e-07
2.4792438e-07
2.4223461e-07
2.364851e-07
2.3042059e-07
2.2427678e-07
2.1767551e-07
2.1095885e-07
2.0359246e-07
1.9604754e-07
1.8758964e-07
1.7880671e-07
1.6878599e-07
1.5804185e-07
1.4504671e-07
1.2998794e-07
1.2883506e-07
1.3159028e-07
1.3537613e-07
1.3915725e-07
1.4222988e-07
1.4463624e-07
1.4623781e-07
1.4735433e-07
1.4794802e-07
1.4834048e-07
1.4882598e-07
1.5006199e-07
1.5168505e-07
1.5349152e-07
1.5536357e-07
1.5731927e-07
1.5928497e-07
1.6125628e-07
1.63431e-07
1.6443143e-07
1.6385844e-07
1.6172494e-07
1.5999794e-07
1.5834572e-07
1.5666676e-07
1.552663e-07
1.5419408e-07
1.5411649e-07
1.544831e-07
1.6006194e-07
1.7149043e-07
1.8700015e-07
2.0739669e-07
2.4005866e-07
8.7277839e-08
6.2923009e-07
1.5887665e-07
8.8511185e-07
6.7915406e-07
6.8986467e-07
1.1544321e-06
1.0540054e-06
7.436267e-07
3.9474306e-07
3.2337847e-07
3.4859277e-07
1.2364974e-06
1.4175334e-06
1.2820144e-06
1.0037007e-06
5.9707347e-07
2.4311557e-07
5.8981678e-08
8.6619475e-09
4.1632038e-09
3.4976694e-09
2.8764137e-09
2.4573408e-09
2.2768287e-09
2.2011985e-09
2.1948624e-09
2.2136247e-09
2.2412383e-09
2.3515221e-09
2.538365e-09
2.8015086e-09
3.1531572e-09
3.6092774e-09
4.1762268e-09
4.681942e-09
2.8168826e-09
1.0091486e-08
4.1600067e-09
5.4571218e-09
6.8860317e-09
8.734004e-09
1.0963463e-08
1.4169526e-08
3.4941803e-08
2.1656073e-08
3.8821528e-08
4.5012178e-08
5.2581875e-08
6.1057083e-08
7.0177129e-08
7.9484562e-08
8.852744e-08
9.6435952e-08
1.0258381e-07
1.0591102e-07
1.0723171e-07
1.0737585e-07
1.1562989e-07
1.5825452e-07
1.9274104e-07
2.2705432e-07
2.6082714e-07
2.9283421e-07
3.255493e-07
3.5667282e-07
3.8850356e-07
4.1941874e-07
4.5079462e-07
4.8174749e-07
5.1295936e-07
5.4397913e-07
5.7508605e-07
6.0604615e-07
6.3694848e-07
6.6763524e-07
6.981169e-07
7.2826838e-07
7.5805363e-07
7.8737567e-07
8.1617766e-07
8.4438287e-07
8.7193328e-07
8.9875859e-07
9.2480383e-07
9.5000675e-07
9.7433293e-07
9.9773877e-07
1.0201793e-06
1.0415984e-06
1.0619691e-06
1.0812487e-06
1.099415e-06
1.1164436e-06
1.132321e-06
1.1470475e-06
1.1605911e-06
1.1729673e-06
1.1841696e-06
1.194179e-06
1.2030446e-06
1.2107486e-06
1.2173339e-06
1.2228048e-06
1.2271803e-06
1.2305126e-06
1.2328299e-06
1.2340859e-06
1.2343945e-06
1.2336942e-06
1.2320248e-06
1.2296768e-06
1.2267718e-06
1.2227928e-06
1.2181287e-06
1.2127605e-06
1.2067242e-06
1.2000613e-06
1.1928134e-06
1.1850097e-06
1.1766824e-06
1.1678589e-06
1.158555e-06
1.1488e-06
1.1385979e-06
1.1279909e-06
1.1170077e-06
1.1056697e-06
1.0940081e-06
1.0820545e-06
1.0698273e-06
1.0573569e-06
1.0446679e-06
1.0317633e-06
1.0186377e-06
1.0053091e-06
9.9177403e-07
9.7806135e-07
9.6415436e-07
9.5008186e-07
9.3582993e-07
9.2142679e-07
9.0683451e-07
8.9209891e-07
8.7711105e-07
8.6196199e-07
8.4651836e-07
8.3091893e-07
8.1493175e-07
7.9877572e-07
7.8210663e-07
7.6525717e-07
7.4771868e-07
7.2999383e-07
7.112954e-07
6.9235127e-07
6.7199459e-07
6.5128187e-07
6.2856371e-07
6.0529585e-07
5.7921028e-07
5.521244e-07
5.2121898e-07
4.8808735e-07
4.4802597e-07
4.0164326e-07
3.9814883e-07
4.066769e-07
4.1838706e-07
4.3009019e-07
4.3960426e-07
4.4706396e-07
4.5203974e-07
4.5551541e-07
4.5737406e-07
4.5861689e-07
4.6014786e-07
4.6396939e-07
4.6894787e-07
4.7446757e-07
4.8016526e-07
4.8609338e-07
4.9202103e-07
4.9793897e-07
5.0442531e-07
5.0724599e-07
5.0519785e-07
4.9843545e-07
4.9296438e-07
4.8768895e-07
4.8233223e-07
4.7782664e-07
4.7432938e-07
4.7385328e-07
4.7480909e-07
4.9171063e-07
5.2599166e-07
5.7260496e-07
6.3320479e-07
7.3184479e-07
3.0590135e-07
1.5639284e-06
5.5367014e-07
2.1857988e-06
1.97918e-06
1.9925187e-06
2.859148e-06
2.6085621e-06
1.8597846e-06
1.1689808e-06
9.669535e-07
1.0486052e-06
3.1366869e-06
3.5997172e-06
3.2592806e-06
2.5686512e-06
1.547507e-06
6.4208044e-07
1.5913195e-07
2.3521405e-08
1.1093974e-08
9.3000842e-09
7.6564683e-09
6.5410542e-09
6.0590133e-09
5.857235e-09
5.8409144e-09
5.8922298e-09
5.965518e-09
6.2566433e-09
6.7510947e-09
7.4482721e-09
8.3804222e-09
9.589968e-09
1.109521e-08
1.2489405e-08
8.5796323e-09
2.3487497e-08
1.2624576e-08
1.6486559e-08
2.0746486e-08
2.6230006e-08
3.2811944e-08
4.2132585e-08
8.37988e-08
6.3502095e-08
1.0324365e-07
1.1984651e-07
1.3999472e-07
1.6255222e-07
1.8683418e-07
2.1162257e-07
2.3571258e-07
2.567871e-07
2.7316099e-07
2.8199359e-07
2.8539538e-07
2.8553891e-07
3.0673261e-07
4.1960099e-07
5.0980313e-07
5.9974161e-07
6.8809687e-07
7.7166944e-07
8.5699472e-07
9.3804655e-07
1.0208643e-06
1.1012164e-06
1.1827053e-06
1.2630397e-06
1.3440042e-06
1.4244393e-06
1.5050765e-06
1.5853245e-06
1.6654206e-06
1.7449706e-06
1.8240099e-06
1.9022248e-06
1.9795338e-06
2.0556945e-06
2.1305686e-06
2.2039654e-06
2.2757419e-06
2.3457219e-06
2.4137681e-06
2.4797232e-06
2.5435025e-06
2.6049992e-06
2.6640913e-06
2.720633e-06
2.7745524e-06
2.8257357e-06
2.8741208e-06
2.9196391e-06
2.9622496e-06
3.0019456e-06
3.0386369e-06
3.0723552e-06
3.1030756e-06
3.1307375e-06
3.1554655e-06
3.1771939e-06
3.1960316e-06
3.2119788e-06
3.2250749e-06
3.2354374e-06
3.2431555e-06
3.248106e-06
3.2505177e-06
3.2502791e-06
3.2474646e-06
3.2428268e-06
3.2366968e-06
3.2277061e-06
3.2168604e-06
3.2041128e-06
3.1895527e-06
3.1732863e-06
3.1554196e-06
3.1360283e-06
3.1151949e-06
3.0929906e-06
3.0694561e-06
3.0446684e-06
3.0186374e-06
2.9914742e-06
2.963255e-06
2.934037e-06
2.903904e-06
2.8729397e-06
2.8411953e-06
2.8087519e-06
2.7756768e-06
2.74198e-06
2.7076496e-06
2.6727344e-06
2.6372274e-06
2.6012072e-06
2.5646317e-06
2.527579e-06
2.4900147e-06
2.4520154e-06
2.4134827e-06
2.3745401e-06
2.3349011e-06
2.2948084e-06
2.2539105e-06
2.2125769e-06
2.1701942e-06
2.1273448e-06
2.0831167e-06
2.0383947e-06
1.9918294e-06
1.9447572e-06
1.8950882e-06
1.844758e-06
1.7906658e-06
1.735622e-06
1.6752402e-06
1.6133947e-06
1.5440489e-06
1.4720436e-06
1.389869e-06
1.3017798e-06
1.1952768e-06
1.0720431e-06
1.0628806e-06
1.0856433e-06
1.1168879e-06
1.148132e-06
1.1735413e-06
1.1934823e-06
1.2068065e-06
1.2161182e-06
1.2211193e-06
1.2244861e-06
1.2286119e-06
1.2387443e-06
1.2518308e-06
1.2662627e-06
1.281071e-06
1.2963809e-06
1.3115658e-06
1.3266119e-06
1.3429672e-06
1.3494539e-06
1.3428117e-06
1.3240258e-06
1.3087925e-06
1.2939483e-06
1.278881e-06
1.2660349e-06
1.2558347e-06
1.2534696e-06
1.2550762e-06
1.2984564e-06
1.3854488e-06
1.5044061e-06
1.6566358e-06
1.9034495e-06
9.3407489e-07
3.3579411e-06
1.6544086e-06
4.694477e-06
4.8404811e-06
4.8654559e-06
6.0677902e-06
5.490676e-06
3.9503269e-06
2.88894e-06
2.4332449e-06
2.6574911e-06
6.9025632e-06
7.9344052e-06
7.2195169e-06
5.7458173e-06
3.5280752e-06
1.5039547e-06
3.8438072e-07
5.7531832e-08
2.6567595e-08
2.2218075e-08
1.8314383e-08
1.564848e-08
1.4491981e-08
1.4008463e-08
1.3971129e-08
1.409773e-08
1.4272669e-08
1.4962561e-08
1.6137724e-08
1.7796687e-08
2.0015822e-08
2.2896118e-08
2.6485926e-08
2.9975267e-08
2.327488e-08
5.0350885e-08
3.4198226e-08
4.4320117e-08
5.554596e-08
6.9931618e-08
8.7066216e-08
1.1058764e-07
1.8514991e-07
1.6479957e-07
2.459512e-07
2.8598307e-07
3.3399343e-07
3.8773418e-07
4.4558871e-07
5.0465076e-07
5.6203886e-07
6.1222479e-07
6.5113782e-07
6.7195482e-07
6.7954361e-07
6.7890899e-07
7.2707508e-07
9.9311221e-07
1.2025475e-06
1.4117349e-06
1.6166243e-06
1.8099029e-06
2.0068789e-06
2.1936079e-06
2.3841341e-06
2.5687355e-06
2.7557418e-06
2.9399354e-06
3.1254377e-06
3.309646e-06
3.4942422e-06
3.6779402e-06
3.8612944e-06
4.0434448e-06
4.224507e-06
4.4037972e-06
4.5811569e-06
4.7560631e-06
4.9282243e-06
5.0972297e-06
5.2627726e-06
5.424469e-06
5.5820183e-06
5.7350751e-06
5.8834637e-06
6.0269471e-06
6.1652275e-06
6.2979725e-06
6.4250101e-06
6.5460716e-06
6.661e-06
6.7696241e-06
6.8718295e-06
6.9675809e-06
7.0566492e-06
7.139082e-06
7.2147964e-06
7.2836248e-06
7.3458358e-06
7.4012314e-06
7.450047e-06
7.4922509e-06
7.5279051e-06
7.5572358e-06
7.5804206e-06
7.597338e-06
7.6081244e-06
7.6127692e-06
7.6113302e-06
7.6055234e-06
7.5961577e-06
7.5800229e-06
7.5594008e-06
7.5341926e-06
7.5045905e-06
7.4708309e-06
7.4331507e-06
7.3917192e-06
7.3467238e-06
7.2983238e-06
7.2466127e-06
7.1917664e-06
7.1338071e-06
7.072992e-06
7.0094999e-06
6.9434658e-06
6.8750888e-06
6.8045666e-06
6.7320246e-06
6.6576563e-06
6.5816253e-06
6.5039611e-06
6.424642e-06
6.3437875e-06
6.261386e-06
6.1776294e-06
6.092425e-06
6.0059631e-06
5.9181686e-06
5.8292277e-06
5.7389162e-06
5.6475304e-06
5.5544029e-06
5.4601093e-06
5.3638276e-06
5.2664329e-06
5.1664853e-06
5.0653625e-06
4.960917e-06
4.8552417e-06
4.7451526e-06
4.633811e-06
4.5162794e-06
4.3971366e-06
4.2690473e-06
4.1386636e-06
3.9955939e-06
3.8490159e-06
3.6846077e-06
3.5138494e-06
3.3188891e-06
3.1098432e-06
2.8570177e-06
2.5644999e-06
2.5429505e-06
2.5972234e-06
2.6717149e-06
2.7462338e-06
2.8068475e-06
2.8544372e-06
2.8862589e-06
2.9084706e-06
2.9204244e-06
2.9284653e-06
2.9382589e-06
2.962051e-06
2.9924917e-06
3.025817e-06
3.0597095e-06
3.0944193e-06
3.1284243e-06
3.1617166e-06
3.1975472e-06
3.2096888e-06
3.1896176e-06
3.1421035e-06
3.1034493e-06
3.0652667e-06
3.0265057e-06
2.9928664e-06
2.9653689e-06
2.9558207e-06
2.9561117e-06
3.0534533e-06
3.2458081e-06
3.5123683e-06
3.8464986e-06
4.377175e-06
2.5291259e-06
6.6302124e-06
4.2903901e-06
9.3288722e-06
1.0353839e-05
1.0434844e-05
1.1652151e-05
1.0408263e-05
7.5431302e-06
6.1543271e-06
5.3063165e-06
5.8308508e-06
1.3397881e-05
1.5439924e-05
1.4181008e-05
1.1440854e-05
7.2077974e-06
3.185042e-06
8.4908843e-07
1.2995887e-07
5.8594171e-08
4.8867306e-08
4.0341828e-08
3.4481031e-08
3.1927565e-08
3.0861757e-08
3.0784894e-08
3.1073889e-08
3.1459695e-08
3.2963336e-08
3.5533854e-08
3.9166973e-08
4.4028743e-08
5.0339693e-08
5.8219644e-08
6.6269986e-08
5.7177093e-08
1.0224858e-07
8.3962361e-08
1.0778626e-07
1.3439249e-07
1.6841696e-07
2.0854278e-07
2.6144907e-07
3.8570724e-07
3.8619201e-07
5.377835e-07
6.2650076e-07
7.3133901e-07
8.4862266e-07
9.7483079e-07
1.1035942e-06
1.2285741e-06
1.3376755e-06
1.4218685e-06
1.4661385e-06
1.4807507e-06
1.4761065e-06
1.5753339e-06
2.1453534e-06
2.5861667e-06
3.0269891e-06
3.4568983e-06
3.8610713e-06
4.2719075e-06
4.6603982e-06
5.0559951e-06
5.4386769e-06
5.8257629e-06
6.2066389e-06
6.5898597e-06
6.9702454e-06
7.351243e-06
7.7303756e-06
8.1088386e-06
8.4849668e-06
8.8590598e-06
9.2298028e-06
9.5969289e-06
9.9594376e-06
1.0316783e-05
1.0668179e-05
1.1013039e-05
1.1350616e-05
1.1680322e-05
1.2001485e-05
1.23138e-05
1.2616749e-05
1.2909682e-05
1.3191921e-05
1.3463093e-05
1.3722626e-05
1.3970164e-05
1.4205321e-05
1.4427818e-05
1.4637535e-05
1.4833951e-05
1.5017108e-05
1.5186776e-05
1.5342558e-05
1.5484928e-05
1.5613435e-05
1.5728488e-05
1.5829962e-05
1.591792e-05
1.599275e-05
1.6054653e-05
1.6103888e-05
1.613989e-05
1.616295e-05
1.6173114e-05
1.6173827e-05
1.6166893e-05
1.6145547e-05
1.6114391e-05
1.6073255e-05
1.6022498e-05
1.5962588e-05
1.5893993e-05
1.5817048e-05
1.573213e-05
1.5639555e-05
1.553951e-05
1.5432353e-05
1.5318125e-05
1.5197356e-05
1.5070419e-05
1.4937599e-05
1.4799318e-05
1.4655993e-05
1.4507898e-05
1.4355448e-05
1.4198998e-05
1.4038623e-05
1.387429e-05
1.3706264e-05
1.3534524e-05
1.3359495e-05
1.3181002e-05
1.2999449e-05
1.2814698e-05
1.2627156e-05
1.2436362e-05
1.2242959e-05
1.2045547e-05
1.1845355e-05
1.1640651e-05
1.1433304e-05
1.1220263e-05
1.100447e-05
1.0781357e-05
1.0555393e-05
1.0319789e-05
1.0081296e-05
9.8293657e-06
9.5737805e-06
9.2988382e-06
9.0187612e-06
8.7112554e-06
8.3959678e-06
8.0420886e-06
7.6742353e-06
7.2538583e-06
6.802685e-06
6.2564107e-06
5.6238106e-06
5.5773896e-06
5.6953048e-06
5.8571754e-06
6.0191048e-06
6.1507879e-06
6.2541394e-06
6.3231908e-06
6.3712795e-06
6.3970952e-06
6.4142919e-06
6.4350885e-06
6.4854199e-06
6.5491521e-06
6.61824e-06
6.6876249e-06
6.757716e-06
6.8251554e-06
6.889988e-06
6.959058e-06
6.9759437e-06
6.920467e-06
6.8082762e-06
6.7175647e-06
6.6263582e-06
6.533712e-06
6.4517194e-06
6.3826296e-06
6.3506739e-06
6.3409171e-06
6.5357878e-06
6.9128884e-06
7.4475261e-06
8.1030581e-06
9.1109221e-06
6.0925264e-06
1.2468846e-05
9.7961143e-06
1.7611654e-05
1.9999446e-05
2.0227709e-05
2.0850795e-05
1.8339959e-05
1.3343256e-05
1.1621897e-05
1.0238411e-05
1.1268091e-05
2.3282519e-05
2.6912539e-05
2.5050389e-05
2.0559645e-05
1.3361745e-05
6.1696444e-06
1.7358087e-06
2.7585542e-07
1.210677e-07
1.0063029e-07
8.3219751e-08
7.1172252e-08
6.5897408e-08
6.3700757e-08
6.3557715e-08
6.4177875e-08
6.4979942e-08
6.8043245e-08
7.3304957e-08
8.0750565e-08
9.0716792e-08
1.0366025e-07
1.1983505e-07
1.3713093e-07
1.2874158e-07
1.9956995e-07
1.8905019e-07
2.4028031e-07
2.9777684e-07
3.7152929e-07
4.574907e-07
5.6628158e-07
7.6594316e-07
8.3068651e-07
1.0966947e-06
1.2802849e-06
1.4932433e-06
1.7311667e-06
1.9868457e-06
2.2472425e-06
2.499315e-06
2.7184328e-06
2.8859713e-06
2.9713242e-06
2.9947157e-06
2.9762743e-06
3.1652059e-06
4.2896439e-06
5.1419188e-06
5.9946232e-06
6.8216049e-06
7.5960382e-06
8.3805906e-06
9.1204309e-06
9.8718662e-06
1.0597575e-05
1.1330263e-05
1.2050462e-05
1.277429e-05
1.3492404e-05
1.4211362e-05
1.4926778e-05
1.5640999e-05
1.6351134e-05
1.7057835e-05
1.7758821e-05
1.845368e-05
1.9140677e-05
1.9818877e-05
2.0486905e-05
2.1143741e-05
2.1788051e-05
2.2418797e-05
2.3034803e-05
2.363562e-05
2.4220077e-05
2.4786952e-05
2.533498e-05
2.5863427e-05
2.6371191e-05
2.6857549e-05
2.7321734e-05
2.7763148e-05
2.8181489e-05
2.8575706e-05
2.8945779e-05
2.9291187e-05
2.9611135e-05
2.9906272e-05
3.0175854e-05
3.0420409e-05
3.0639631e-05
3.0833539e-05
3.1002744e-05
3.1147341e-05
3.1268284e-05
3.1364409e-05
3.1435052e-05