/*--------------------------------*- C++ -*----------------------------------*\
| =========                 |                                                 |
| \\      /  F ield         | OpenFOAM: The Open Source CFD Toolbox           |
|  \\    /   O peration     | Version:  2.4.0                                 |
|   \\  /    A nd           | Web:      www.OpenFOAM.org                      |
|    \\/     M anipulation  |                                                 |
\*---------------------------------------------------------------------------*/
FoamFile
{
    version     2.0;
    format      ascii;
    class       volScalarField;
    location    "500";
    object      omega;
}
// * * * * * * * * * * * * * * * * * * * * * * * * * * * * * * * * * * * * * //

dimensions      [0 0 -1 0 0 0 0];

internalField   nonuniform List<scalar> 
32000
(
89220.221
89230.462
89259.402
89570.704
90688.178
93335.916
98254.84
105172.35
111843.73
117265.1
121052.95
123101.64
123585.53
122630.71
120422.05
117088.36
112793.08
107948.7
103389.2
99244.544
95463.415
92013.209
88865.326
85981.441
83351.356
80938.403
78719.092
76480.566
74076.193
71524.008
68852.745
66091.376
63268.447
60412.243
57547.629
54723.801
52053.445
49646.348
47502.535
45619.239
44000.027
42647.862
41567.576
40766.932
40254.264
40038.598
40093.676
40115.591
40115.591
40115.591
40115.591
40115.591
40115.591
40115.591
40115.591
40115.592
40115.591
40115.592
40115.592
40115.592
40115.592
40115.592
40115.592
40115.592
40115.592
40115.592
40115.592
40115.592
40115.593
40115.592
40115.593
40115.592
40115.593
40115.592
40115.593
40115.593
40115.593
40115.592
40115.593
40115.592
40115.592
40115.593
40115.592
40115.592
40115.593
40115.592
40115.592
40115.592
40115.592
40115.592
40115.592
40115.592
40115.592
40115.592
40115.592
40115.592
40115.592
40115.592
40115.592
40115.591
40115.591
40115.592
40115.591
40115.592
40115.592
40115.591
40115.591
40115.592
40115.591
40115.591
40115.591
40115.591
40115.591
40115.591
40115.591
40115.591
40115.591
40115.591
40115.591
40115.591
40115.591
40115.591
40115.591
40115.591
40115.591
40115.59
40115.591
40115.591
40115.59
40115.59
40115.591
40115.59
40115.59
40115.591
40115.59
40115.591
40115.591
40115.59
40115.591
40115.591
40115.59
40115.59
40115.591
40115.59
40115.591
40115.591
40115.59
40115.59
40115.591
40115.59
40115.591
40115.59
40115.59
40093.699
40038.588
40254.396
40766.22
41568.242
42649.167
43996.814
45619.943
47504.542
49650.281
52052.716
54711.85
57548.93
60416.302
63272.067
66095.573
68856.635
71529.078
74082.283
76485.089
78720.042
80933.43
83305.573
85985.778
88870.015
92016.66
95465.276
99247.6
103390.85
107950.53
112794.48
117089.66
120423.13
122636.6
123588.22
123106.02
121062.96
117275.21
111829.35
105157.43
98261.466
93338.59
90686.635
89570.788
89259.41
89230.617
89220.371
14860.518
14861.135
14865.779
14917.977
15104.067
15543.213
16358.216
16796.855
17862.865
18730.406
19337.388
19666.559
19745.625
19594.719
19243.409
18712.258
18027.322
17254.035
16526.071
15865.594
15265.182
14720.601
14225.394
13795.748
15743.334
11388.912
14846.521
14413.212
13946.761
13451.726
12933.45
12392.354
8985.612
11205.768
9588.4413
9118.1492
8673.2468
8272.0835
7914.7899
7600.9016
7331.0169
7105.6411
6925.5791
6792.1444
6706.725
6670.8307
6679.5151
6682.2716
6682.073
6682.0393
6682.0036
6681.9815
6681.9621
6681.9491
6681.9385
6681.9311
6681.9252
6681.9207
6681.9169
6681.9137
6681.9107
6681.9078
6681.9047
6681.9015
6681.898
6681.8941
6681.8899
6681.8853
6681.8803
6681.875
6681.8694
6681.8634
6681.8572
6681.8507
6681.8439
6681.8369
6681.8322
6681.8281
6681.8237
6681.819
6681.8141
6681.809
6681.8037
6681.7982
6681.7926
6681.7868
6681.7809
6681.775
6681.769
6681.763
6681.7569
6681.7509
6681.745
6681.7391
6681.7333
6681.7277
6681.7221
6681.7166
6681.7113
6681.7062
6681.7012
6681.6964
6681.6917
6681.6873
6681.6831
6681.6789
6681.6751
6681.6715
6681.6679
6681.6646
6681.6616
6681.6586
6681.6559
6681.6534
6681.6511
6681.6489
6681.6469
6681.6452
6681.6436
6681.6421
6681.6408
6681.6397
6681.6387
6681.6379
6681.6372
6681.6365
6681.6361
6681.6358
6681.6356
6681.6355
6681.6356
6681.6357
6681.6359
6681.6363
6681.6367
6681.6373
6681.638
6681.6387
6681.6396
6681.6407
6681.6418
6681.6432
6681.6447
6681.6465
6681.6484
6681.6508
6681.6533
6681.6566
6681.6601
6681.6649
6681.6741
6681.6908
6681.8184
6679.0675
6670.7129
6706.7717
6792.0573
6925.7282
7105.8777
7330.4934
7601.0219
7915.1096
8272.703
8673.0568
9116.1002
9588.5878
10065.977
10541.399
11011.41
11470.985
11915.771
12340.671
12740.505
13112.503
13481.172
13876.53
14323.186
14803.779
15328.145
15902.823
16533.083
17223.49
17983.15
18789.412
19503.43
20057.163
20424.199
20577.077
23489.727
16863.519
22313.278
15616.335
16760.646
15716.517
13096.518
12722.211
12572.333
14855.541
14864.008
14861.406
4791.4285
4791.2543
4793.8663
4811.6141
4872.1352
5013.1674
5274.187
5493.6387
5841.2728
6125.4988
6324.6622
6433.0017
6459.386
6410.4863
6295.9642
6122.5553
5898.7745
5645.861
5407.5307
5191.1121
4994.1326
4815.1059
4652.9825
4531.8579
5892.3251
3196.5119
5557.3287
5368.019
5179.8612
4980.7152
4772.6536
4540.6133
2582.3092
4057.6138
3088.4154
2940.6482
2797.1712
2667.7532
2552.4817
2451.2106
2364.13
2291.4135
2233.3158
2190.286
2162.7636
2151.3256
2154.219
2154.887
2154.734
2154.7141
2154.6853
2154.6759
2154.6662
2154.6651
2154.6648
2154.6685
2154.6726
2154.6783
2154.6839
2154.6899
2154.6953
2154.7003
2154.7044
2154.7078
2154.71
2154.7113
2154.7113
2154.7102
2154.7079
2154.7045
2154.7
2154.6944
2154.6878
2154.6801
2154.6714
2154.6616
2154.6525
2154.6427
2154.632
2154.6204
2154.6081
2154.5951
2154.5815
2154.5673
2154.5526
2154.5375
2154.5219
2154.5061
2154.4902
2154.4741
2154.4579
2154.4416
2154.4255
2154.4095
2154.3936
2154.378
2154.3626
2154.3474
2154.3328
2154.3185
2154.3045
2154.291
2154.2779
2154.2653
2154.2531
2154.2415
2154.2304
2154.2198
2154.2097
2154.2001
2154.1911
2154.1825
2154.1745
2154.167
2154.16
2154.1535
2154.1476
2154.142
2154.137
2154.1324
2154.1283
2154.1245
2154.1212
2154.1182
2154.1157
2154.1135
2154.1117
2154.1102
2154.109
2154.1082
2154.1077
2154.1074
2154.1074
2154.1078
2154.1084
2154.1092
2154.1104
2154.1118
2154.1135
2154.1156
2154.118
2154.1206
2154.1238
2154.1273
2154.1315
2154.1361
2154.1417
2154.148
2154.1556
2154.1647
2154.178
2154.1969
2154.2816
2153.644
2151.142
2162.784
2190.2809
2233.3921
2291.4969
2363.9495
2451.2127
2552.5215
2667.8605
2796.9878
2939.8581
3092.1691
3246.0263
3399.2441
3550.7106
3698.8062
3842.1315
3979.0428
4107.8785
4227.7876
4346.6996
4474.2729
4618.3671
4773.3996
4942.5611
5127.95
5331.2626
5553.9723
5798.9661
6058.7721
6288.615
6467.0001
6585.1575
6618.8051
9097.1721
4592.683
8545.296
4298.4615
5441.0189
5162.0538
3654.5878
3534.9516
3492.4129
4775.4035
4795.3599
4792.5175
2148.9511
2148.6162
2151.2616
2160.3923
2188.0707
2250.6441
2365.5327
2481.0811
2636.846
2765.3202
2855.5435
2904.8347
2916.9755
2895.0907
2843.5329
2765.3562
2664.4461
2550.2965
2442.6284
2344.8113
2255.7252
2174.6768
2101.6595
2058.4229
2963.2352
1285.0219
2799.7115
2682.8591
2578.8433
2469.2572
2355.2151
2217.4987
1073.645
1965.0728
1381.5577
1318.3104
1253.9969
1195.9652
1144.2699
1098.8516
1059.7907
1027.1772
1001.1196
981.85019
969.5567
964.62648
966.19505
966.42102
966.28759
966.2847
966.26609
966.27349
966.2776
966.29274
966.30714
966.32611
966.3444
966.36406
966.38259
966.40077
966.41733
966.43259
966.44581
966.45718
966.46622
966.47302
966.47737
966.47931
966.47889
966.47609
966.47096
966.46354
966.45385
966.44206
966.42814
966.41221
966.39532
966.37657
966.35598
966.33375
966.30996
966.28481
966.25842
966.23084
966.20227
966.17283
966.14259
966.11183
966.08069
966.04922
966.01757
965.98584
965.95425
965.92283
965.89175
965.86104
965.83083
965.80107
965.77215
965.74395
965.7164
965.68969
965.66385
965.63892
965.61492
965.59192
965.56988
965.54883
965.52878
965.5097
965.49167
965.47458
965.45858
965.44357
965.42955
965.4165
965.40445
965.3933
965.38311
965.37379
965.36531
965.35763
965.35078
965.34471
965.3394
965.3348
965.33092
965.32771
965.32514
965.32319
965.32183
965.32098
965.32076
965.32106
965.32192
965.3232
965.32509
965.32739
965.33036
965.33372
965.33787
965.34228
965.34776
965.35345
965.36065
965.36807
965.3776
965.38749
965.40033
965.41442
965.43424
965.45906
965.52858
965.37189
964.31161
969.51889
981.82743
1001.1389
1027.1743
1059.643
1098.7514
1144.1527
1195.8419
1253.7086
1317.7202
1385.9362
1454.8349
1523.4487
1591.2807
1657.6056
1721.7994
1783.1283
1840.8543
1894.6209
1947.9847
2005.2495
2069.8961
2139.4507
2215.3451
2298.5159
2389.7238
2489.6298
2599.4914
2715.8903
2818.7914
2898.9906
2952.3189
2954.0999
4811.1805
1767.6537
4430.3786
1688.1158
2428.9887
2356.0461
1466.3684
1404.6584
1384.7454
2131.3366
2154.6366
2150.4359
1161.2496
1160.8508
1163.6495
1169.8101
1185.0481
1217.8113
1277.3261
1343.6146
1426.5423
1496.0938
1545.1204
1572.0935
1578.8075
1567.0794
1539.2522
1496.9955
1442.4715
1380.745
1322.4652
1269.5015
1221.2507
1177.3306
1137.9764
1120.4874
1693.4433
668.64497
1604.8045
1524.7204
1460.0529
1392.2384
1321.9617
1231.2416
575.30712
1087.4092
743.05523
710.69191
676.02153
644.72912
616.84582
592.34692
571.27065
553.67877
539.62386
529.26641
522.70001
520.2738
521.46217
521.57555
521.46169
521.48322
521.48303
521.51332
521.5375
521.57379
521.60757
521.64569
521.68164
521.71812
521.75199
521.78433
521.81353
521.84
521.86286
521.88231
521.89779
521.90937
521.91686
521.9203
521.91977
521.91528
521.90689
521.89472
521.87883
521.85944
521.8366
521.81046
521.78158
521.74966
521.71484
521.67741
521.63753
521.59551
521.55155
521.50576
521.45846
521.40984
521.36005
521.3095
521.25834
521.20679
521.155
521.10319
521.05162
521.00041
520.94978
520.89982
520.8507
520.80243
520.75546
520.70969
520.66505
520.62179
520.57997
520.53963
520.50085
520.46367
520.42808
520.39412
520.3618
520.33108
520.30204
520.27459
520.24886
520.22478
520.2023
520.18141
520.16213
520.14435
520.12809
520.11327
520.09982
520.08769
520.0769
520.06738
520.0591
520.05199
520.04604
520.04118
520.03737
520.03455
520.0327
520.03169
520.03168
520.03248
520.03421
520.0366
520.03996
520.04393
520.04897
520.05454
520.06137
520.0685
520.07732
520.08626
520.09758
520.10891
520.12359
520.13828
520.15766
520.17798
520.20591
520.23852
520.3065
520.31253
519.75707
522.54262
529.15473
539.54272
553.55775
571.04042
592.10197
616.55211
644.39143
675.55536
710.02016
746.73349
783.81357
820.74571
857.26357
892.97795
927.55614
960.60535
991.73524
1020.7711
1049.6286
1080.5955
1115.5178
1153.0972
1194.102
1239.0339
1288.3057
1342.2768
1401.5913
1464.3762
1519.8728
1563.5694
1592.9935
1585.3774
2893.5065
891.89276
2598.04
872.66988
1301.9533
1299.951
772.87632
731.08554
717.61539
1147.6812
1169.1857
1163.5044
706.6391
706.18001
708.82323
713.83491
723.1006
741.61205
774.74862
814.85887
863.57566
905.64626
935.49127
952.09344
956.26687
949.24383
932.42943
906.8545
873.89794
836.56416
801.27486
769.19878
739.97435
713.36678
689.64537
681.57193
1028.8594
419.27338
978.48605
922.84012
881.13815
837.53503
792.50136
731.71642
365.47671
646.81112
448.31315
429.54781
408.59288
389.67469
372.80936
357.9901
345.23524
334.59626
326.0996
319.88082
315.99175
314.78496
315.88302
315.98035
315.89097
315.94122
315.96478
316.02066
316.06782
316.12673
316.18121
316.23885
316.29256
316.34527
316.39358
316.43859
316.47863
316.51406
316.54398
316.56854
316.58722
316.60004
316.60686
316.60783
316.60298
316.59243
316.5763
316.55477
316.52799
316.49626
316.45967
316.41825
316.37244
316.32247
316.26861
316.21123
316.15062
316.08718
316.02121
315.95291
315.88271
315.81087
315.73765
315.6636
315.58879
315.51376
315.43859
315.36358
315.28911
315.21533
315.14253
315.07084
315.0005
314.93155
314.86453
314.79932
314.73582
314.67441
314.61514
314.55806
314.50327
314.45083
314.40071
314.35297
314.30761
314.2646
314.22402
314.18577
314.14999
314.11659
314.0855
314.05673
314.03025
314.00594
313.98381
313.96377
313.94569
313.92953
313.91529
313.90288
313.89226
313.88331
313.87603
313.87032
313.86612
313.86334
313.86194
313.86176
313.86302
313.86541
313.86914
313.87379
313.87984
313.8867
313.89511
313.90418
313.91506
313.92625
313.93984
313.95345
313.97041
313.98714
314.00859
314.02968
314.05738
314.08565
314.12351
314.16591
314.23987
314.3186
313.97749
315.63322
319.60176
325.85178
334.29645
344.8356
357.53726
372.28333
389.07766
407.87465
428.65732
450.78555
473.13926
495.4118
517.44415
539.00304
559.89133
579.87491
598.72497
616.35
633.91103
652.74653
673.94876
696.77284
721.67755
748.96352
778.88405
811.66083
847.64736
885.70107
919.35665
946.35837
964.98486
956.1251
1829.6317
562.80419
1599.3319
563.91261
788.34121
809.78337
500.56361
469.78571
458.85872
700.58451
717.20321
710.21337
468.08347
467.47938
469.50331
474.10898
480.04039
490.63444
508.95862
533.53082
563.76487
591.12915
610.73981
621.82161
624.63228
620.10332
609.13859
592.43156
570.9575
546.62223
523.5891
502.65232
483.57933
466.21388
450.79686
446.18959
648.56232
296.46687
618.90784
580.87738
553.72707
525.40137
496.20635
455.95053
257.20584
404.52534
292.34931
280.35197
266.67929
254.33036
243.31411
233.63416
225.2984
218.3548
212.81667
208.81193
206.37322
205.8702
206.98408
207.09649
207.0345
207.11261
207.16031
207.23954
207.30777
207.38606
207.45796
207.53105
207.59825
207.6624
207.7201
207.77236
207.81764
207.8561
207.88702
207.91045
207.92603
207.93364
207.9335
207.92559
207.91013
207.88731
207.85736
207.82056
207.77714
207.72753
207.67183
207.60999
207.54267
207.47037
207.39346
207.31244
207.22768
207.13971
207.04889
206.95554
206.86017
206.76314
206.66477
206.56577
206.46608
206.36661
206.26727
206.16852
206.07077
205.97423
205.87924
205.78595
205.69464
205.60541
205.51884
205.43478
205.35309
205.27429
205.19841
205.12548
205.05563
204.98891
204.9253
204.86485
204.80756
204.75338
204.70241
204.65453
204.60988
204.56835
204.52988
204.49443
204.46197
204.43236
204.40561
204.38156
204.3601
204.34115
204.3247
204.31064
204.29893
204.2894
204.28206
204.27674
204.27342
204.27194
204.27227
204.2742
204.27799
204.28326
204.29027
204.29848
204.30851
204.31957
204.33264
204.34652
204.36275
204.37933
204.39898
204.41859
204.4425
204.46598
204.4955
204.52434
204.56169
204.59931
204.64887
204.7031
204.78806
204.90823
204.66798
205.71576
208.27417
212.32038
217.80132
224.64738
232.90421
242.49216
253.41583
265.64008
279.15219
293.53185
308.06542
322.55599
336.90188
350.95315
364.5852
377.64863
390.00008
401.5905
413.19656
425.62612
439.57642
454.60459
471.00377
488.96717
508.66452
530.24633
553.90335
578.88955
601.01089
619.27535
632.30404
625.31671
1183.1007
411.77111
1013.32
416.4251
522.45883
547.51382
370.7431
348.87091
339.94212
470.84863
481.41845
473.49012
331.541
330.60921
331.62905
336.15599
340.13249
345.9664
354.88586
369.20026
388.36867
407.06651
420.67964
428.53557
430.54433
427.46699
419.91397
408.384
393.6257
376.90314
361.05028
346.64206
333.52146
321.57784
311.00645
307.62781
421.36963
224.26272
403.15898
377.77398
360.02398
341.55726
322.53376
296.32459
191.35036
264.19318
201.58725
193.30333
183.88504
175.37243
167.7723
161.09513
155.34327
150.56447
146.76546
144.07449
142.5148
142.4764
143.64156
143.77277
143.73554
143.83425
143.90017
143.99469
144.07637
144.16551
144.24638
144.326
144.39775
144.46417
144.52205
144.57218
144.61343
144.64559
144.66836
144.68158
144.68515
144.67913
144.66364
144.63893
144.60531
144.5631
144.51266
144.45437
144.38861
144.31586
144.2362
144.14971
144.0573
143.95963
143.85716
143.75049
143.64011
143.52658
143.41039
143.29188
143.17166
143.05014
142.92771
142.80521
142.68236
142.56048
142.43926
142.31927
142.20097
142.08455
141.97038
141.85862
141.74959
141.64339
141.54065
141.44112
141.34465
141.25187
141.16276
141.07735
140.99576
140.91803
140.84413
140.77411
140.70794
140.6456
140.58713
140.53244
140.48166
140.43464
140.39132
140.35165
140.31558
140.28296
140.25375
140.22781
140.20498
140.18517
140.16839
140.15447
140.14338
140.13493
140.1291
140.12572
140.12474
140.12597
140.12942
140.13478
140.1424
140.15179
140.1633
140.17625
140.19142
140.20782
140.22667
140.24644
140.26909
140.29212
140.31889
140.34556
140.37744
140.40875
140.44736
140.4851
140.53314
140.58131
140.64386
140.71154
140.81079
140.95994
140.7691
141.45449
143.18294
145.93555
149.67964
154.36277
160.01805
166.5881
174.07655
182.45607
191.71587
201.56475
211.52811
221.47282
231.33092
241.00141
250.40236
259.4343
268.00214
276.07873
284.24857
292.96405
302.70211
313.20586
324.66942
337.2222
350.98529
366.06854
382.5567
399.93435
415.33113
428.52667
438.27249
433.97778
776.30993
325.3321
658.33155
327.73914
370.44081
391.19761
294.74665
281.22644
275.16834
342.51637
347.50466
339.1201
248.43007
246.89661
246.72702
251.28591
254.2476
257.25758
259.73181
266.51277
278.48046
291.69402
301.54683
307.38504
308.8898
306.71678
301.29372
293.00018
282.44737
270.50319
259.15777
248.84981
239.4696
230.93473
223.39413
220.47014
282.28622
175.44311
270.52222
253.85171
242.19846
230.08382
217.59129
200.76594
146.46019
179.82792
144.95709
138.8934
132.14009
126.02958
120.56947
115.77524
111.64659
108.23278
105.53788
103.69374
102.71731
103.01962
104.23466
104.37206
104.34923
104.45421
104.52542
104.62118
104.70287
104.78921
104.86577
104.93864
105.00197
105.05787
105.10346
105.13924
105.16471
105.17913
105.18276
105.17555
105.15734
105.12848
105.08922
105.03997
104.98121
104.9134
104.83703
104.75259
104.66058
104.56154
104.45543
104.34272
104.22445
104.10136
103.974
103.84301
103.70894
103.57241
103.43392
103.29385
103.15283
103.0113
102.86968
102.72883
102.58835
102.44976
102.3126
102.17747
102.04483
101.91484
101.78787
101.66403
101.54363
101.4268
101.31415
101.20534
101.10015
100.99933
100.90277
100.81051
100.72264
100.63918
100.56008
100.48536
100.415
100.34895
100.28725
100.2298
100.17671
100.12783
100.08307
100.04239
100.00571
99.972866
99.943821
99.918402
99.896446
99.877861
99.862634
99.850597
99.841736
99.835807
99.83282
99.832551
99.834984
99.839889
99.847289
99.856839
99.868938
99.883029
99.899539
99.917661
99.938328
99.960368
99.985228
100.01112
100.04032
100.06995
100.10388
100.13771
100.17753
100.21676
100.26437
100.31111
100.36971
100.42858
100.50402
100.58547
100.70016
100.87184
100.70496
101.15709
102.36023
104.29717
106.9486
110.27225
114.29395
118.96883
124.3008
130.26737
136.85878
143.86507
150.96258
158.05787
165.10409
172.03104
178.78355
185.29366
191.493
197.36647
203.41942
209.82786
216.93697
224.62236
233.01212
242.19397
252.25782
263.28741
275.29059
287.88174
299.03657
309.00196
316.55299
314.6792
517.45909
264.27372
440.20849
262.46066
274.74378
289.36405
240.68579
235.00256
232.85867
265.58582
266.43742
258.13813
195.23885
192.78726
191.50514
196.06019
198.76033
200.37957
198.3907
199.06436
205.96284
215.51045
222.88574
227.39545
228.56831
226.9886
222.96577
216.80455
209.02329
200.24248
191.87969
184.28651
177.38438
171.10927
165.56877
162.90382
195.46596
139.36631
187.42357
176.55542
168.824
160.76967
152.44344
141.69476
113.82309
127.34392
107.7098
103.06957
98.076025
93.551738
89.506506
85.959602
82.910182
80.409758
78.462243
77.203643
76.644944
77.211966
78.452895
78.572091
78.54468
78.634989
78.692229
78.77038
78.834167
78.900593
78.956502
79.007021
79.047079
79.078436
79.098467
79.107329
79.105332
79.091512
79.066253
79.029726
78.981986
78.923527
78.854792
78.776366
78.688871
78.592892
78.489022
78.377859
78.259963
78.135865
78.005409
77.869613
77.729421
77.585611
77.43874
77.289464
77.138323
76.985911
76.832696
76.679044
76.525575
76.372654
76.220706
76.070526
75.921699
75.775626
75.631832
75.490885
75.353172
75.218798
75.088098
74.961097
74.838059
74.719133
74.604884
74.494859
74.388781
74.287428
74.190672
74.098492
74.010957
73.928059
73.84973
73.775976
73.706746
73.641984
73.58173
73.525857
73.474482
73.427441
73.384637
73.346024
73.311514
73.280946
73.254272
73.23132
73.211923
73.195994
73.183522
73.17433
73.16844
73.165587
73.165748
73.168751
73.174565
73.182953
73.193955
73.207206
73.22315
73.241187
73.2618
73.284118
73.309172
73.335682
73.365247
73.395916
73.43019
73.464953
73.504392
73.543816
73.589752
73.635239
73.689848
73.743835
73.810772
73.87849
73.964424
74.057659
74.185815
74.374009
74.218245
74.511596
75.363892
76.758236
78.684733
81.107189
84.046967
87.465863
91.369961
95.738738
100.56333
105.68763
110.88822
116.09764
121.28278
126.39376
131.39282
136.23269
140.8569
145.27138
149.92779
154.83454
160.19766
166.02031
172.37913
179.33239
186.94784
195.28913
204.30851
213.67238
221.97103
229.67516
235.55929
235.39521
352.3078
214.37482
304.66652
208.00162
208.87065
218.0713
196.71821
197.75741
200.17672
215.60937
214.23597
206.72346
159.41091
155.9068
153.72787
158.15384
161.17034
162.57434
157.74876
153.1163
156.12157
163.10956
168.79209
172.39189
173.33927
172.16535
169.10133
164.40625
158.52272
151.92791
145.62261
139.90342
134.71315
130.00031
125.83616
123.43867
140.10556
111.49001
134.30695
127.17886
121.95742
116.48306
110.80164
103.83292
89.398444
93.490254
82.201971
78.506515
74.723643
71.291739
68.223127
65.540218
63.24297
61.385297
59.972599
59.143233
58.902257
59.675894
60.902733
60.971919
60.913052
60.963888
60.984452
61.024608
61.051613
61.081185
61.10088
61.114978
61.119025
61.114486
61.098843
61.072497
61.035494
60.987388
60.928548
60.859327
60.779957
60.691078
60.593274
60.48725
60.37372
60.253333
60.12673
59.99453
59.857281
59.715385
59.568789
59.418827
59.266223
59.111704
58.955769
58.799011
58.641897
58.48493
58.328491
58.172869
58.018602
57.865963
57.715309
57.567276
57.42158
57.279185
57.13977
57.003772
56.871485
56.742936
56.618395
56.497818
56.381353
56.269155
56.16176
56.058627
55.959422
55.864864
55.774846
55.689287
55.608234
55.531648
55.459451
55.391626
55.328112
55.268849
55.213862
55.163028
55.116454
55.073975
55.035499
55.000984
54.970343
54.943429
54.920194
54.900478
54.884126
54.871062
54.861283
54.854613
54.851151
54.850531
54.852828
54.857853
54.865594
54.875824
54.888597
54.903557
54.921167
54.940827
54.963049
54.986955
55.013613
55.041725
55.07294
55.105284
55.141309
55.177894
55.219258
55.260759
55.30892
55.356918
55.414255
55.471476
55.542022
55.614179
55.705271
55.805246
55.941071
56.137422
55.986893
56.168443
56.777714
57.797037
59.223446
61.024382
63.217282
65.769538
68.68847
71.954499
75.559556
79.384802
83.275638
87.182179
91.080426
94.934267
98.717463
102.39639
105.91443
109.32207
112.99299
116.87256
121.01336
125.53583
130.47737
135.87453
141.77781
148.23138
155.156
162.19721
168.48143
174.4609
178.96889
179.74623
245.92177
171.69152
216.00672
163.80968
160.47419
165.67211
158.99348
164.95458
171.82209
179.93986
178.12967
171.98492
133.88903
129.39246
126.61453
130.74113
134.40875
136.54369
130.344
121.05619
120.72916
125.86397
130.35961
133.31699
134.10856
133.22232
130.83724
127.18632
122.64314
117.61254
112.77543
108.39444
104.42756
100.83225
97.653731
95.56244
103.88277
89.592197
99.515502
94.744463
91.127337
87.292859
83.291929
78.61984
70.871865
70.896785
64.066111
61.104406
58.182141
55.528575
53.158473
51.096896
49.345441
47.959908
46.948018
46.446833
46.457394
47.382501
48.544917
48.531887
48.409403
48.398475
48.361442
48.347053
48.322907
48.304074
48.277749
48.248106
48.210395
48.165828
48.112119
48.049679
47.978384
47.898092
47.809151
47.712005
47.606981
47.494772
47.376011
47.251415
47.121692
46.987458
46.849301
46.707765
46.563289
46.416065
46.266371
46.115405
45.963659
45.81173
45.660002
45.508937
45.358878
45.210191
45.063133
44.91788
44.774853
44.634206
44.496199
44.361296
44.229285
44.100752
43.975481
43.853774
43.735823
43.621587
43.511261
43.40475
43.30211
43.203405
43.10922
43.01897
42.932289
42.849738
42.771295
42.696822
42.62635
42.559823
42.497159
42.438328
42.383266
42.331916
42.284292
42.240286
42.19999
42.163256
42.130003
42.100199
42.073766
42.050581
42.030605
42.013701
41.999732
41.988642
41.980435
41.974959
41.972338
41.972199
41.974666
41.979553
41.986869
41.996415
42.008251
42.022055
42.038278
42.056364
42.076812
42.098803
42.123363
42.149274
42.178113
42.208034
42.241448
42.275469
42.314029
42.352897
42.398104
42.443507
42.497824
42.552643
42.620281
42.690478
42.779136
42.878181
43.012563
43.205769
43.058827
43.161035
43.598773
44.352714
45.425038
46.784629
48.446842
50.382955
52.600948
55.081852
57.818359
60.718487
63.675524
66.651793
69.629303
72.581449
75.489533
78.328557
81.036185
83.721929
86.655738
89.785948
93.036442
96.604013
100.50452
104.75851
109.40231
114.45992
119.84424
125.14447
129.93473
134.54538
137.90206
139.00144
175.46189
136.21586
156.49102
127.86639
123.73342
126.35228
126.78194
135.54043
145.90604
152.02712
151.03652
146.68317
114.60625
109.36693
106.29053
109.96
114.34296
117.86537
111.58664
98.457554
94.918429
98.66385
102.31288
104.80623
105.4899
104.81463
102.92447
100.03834
96.470266
92.590271
88.830886
85.432827
82.365183
79.592106
77.142616
75.376991
79.451804
72.347283
76.046568
72.750491
70.162266
67.379651
64.456232
61.157255
56.728546
55.235038
50.819717
48.433275
46.139463
44.056432
42.201201
40.600962
39.25934
38.232777
37.531266
37.28563
37.499271
38.516912
39.561164
39.443089
39.225694
39.140396
39.033336
38.957839
38.878122
38.809372
38.737507
38.66651
38.591085
38.512109
38.427321
38.33698
38.240784
38.138673
38.030898
37.917857
37.799854
37.677509
37.55138
37.422082
37.290205
37.156234
37.020614
36.883734
36.745846
36.607012
36.467748
36.328874
36.190678
36.053588
35.917844
35.783757
35.651532
35.521388
35.393458
35.267812
35.144742
35.024302
34.906652
34.792109
34.680486
34.572113
34.466826
34.364819
34.266202
34.170891
34.079015
33.990452
33.905217
33.823257
33.745173
33.670458
33.598728
33.53033
33.465368
33.403659
33.34523
33.290021
33.237954
33.188998
33.143093
33.100191
33.060301
33.02333
32.989363
32.958272
32.929993
32.904506
32.881748
32.861624
32.844102
32.829075
32.81643
32.806128
32.79818
32.792468
32.789084
32.787754
32.78857
32.791375
32.796197
32.802873
32.811455
32.821674
32.833938
32.847765
32.863604
32.880739
32.90009
32.920591
32.943643
32.967641
32.994701
33.022346
33.053972
33.086018
33.123653
33.161775
33.207795
33.25484
33.313358
33.375195
33.453826
33.543792
33.66683
33.844748
33.702276
33.749203
34.065475
34.629639
35.447005
36.48774
37.765612
39.25478
40.963415
42.873258
44.977743
47.204957
49.481437
51.778135
54.080989
56.369979
58.63121
60.844518
62.94473
65.093117
67.450228
69.99696
72.583333
75.419612
78.522484
81.901031
85.579882
89.567391
93.772714
97.748984
101.3983
104.92267
107.35281
108.3918
127.94315
107.29077
115.63205
99.414128
95.75747
96.917456
100.14662
109.79126
122.10149
128.701
129.16245
126.74166
99.214536
93.598243
90.481597
93.598211
98.545201
103.78617
98.458705
82.621393
75.710578
78.340808
81.379894
83.532459
84.142592
83.627543
82.107893
79.795925
76.956886
73.94286
70.993934
68.335267
65.944345
63.790483
61.8935
60.443178
62.424649
58.793088
59.689366
57.320591
55.399275
53.304024
51.08451
48.648774
45.829197
43.971168
40.918154
38.984524
37.160409
35.506065
34.040474
32.792213
31.767004
31.019914
30.562187
30.517172
30.887394
31.938176
32.817776
32.583653
32.2565
32.096969
31.921636
31.790996
31.663369
31.554204
31.447502
31.346827
31.246204
31.146014
31.043883
30.939752
30.833098
30.723759
30.611808
30.49748
30.380953
30.262672
30.143038
30.022481
29.901408
29.780122
29.658887
29.537907
29.417239
29.296966
29.177562
29.0595
28.942907
28.828055
28.715057
28.604088
28.495242
28.388621
28.284267
28.182169
28.082519
27.985301
27.890605
27.798639
27.70923
27.622552
27.538478
27.457127
27.378556
27.302666
27.229542
27.159057
27.09121
27.025895
26.963628
26.904079
26.846872
26.792135
26.740095
26.690549
26.643525
26.598966
26.556809
26.517026
26.479564
26.444389
26.411506
26.380845
26.352476
26.326298
26.302264
26.280363
26.260548
26.242747
26.22694
26.213043
26.200969
26.190688
26.182218
26.175472
26.170512
26.167128
26.16543
26.165246
26.166631
26.169457
26.173759
26.179321
26.186497
26.194883
26.204859
26.215829
26.22857
26.242197
26.257885
26.274315
26.293228
26.312627
26.335264
26.358335
26.385989
26.41427
26.449073
26.48519
26.530901
26.580299
26.643987
26.719127
26.823614
26.977069
26.841098
26.850958
27.081513
27.509322
28.14154
28.949604
29.94579
31.10677
32.440422
33.929502
35.568136
37.299794
39.073809
40.867334
42.668887
44.463001
46.238699
47.977827
49.620134
51.358113
53.253034
55.324498
57.405957
59.671775
62.147572
64.838564
67.760132
70.910975
74.196268
77.168767
79.945053
82.625241
84.355829
85.171983
95.398743
84.358678
87.107469
77.62947
74.707871
75.127147
78.966892
88.139219
100.61161
108.66483
110.67532
109.91963
86.372976
80.764838
77.805341
80.354597
85.59914
92.593435
88.929256
71.813465
61.223094
62.854292
65.451986
67.351308
67.913294
67.524612
66.28964
64.418598
62.139217
59.789477
57.462916
55.371832
53.500258
51.82156
50.350905
49.198392
50.150658
48.150103
47.902539
46.126737
44.642367
43.008809
41.261542
39.380353
37.375017
35.598758
33.362383
31.787052
30.32176
28.997118
27.833584
26.860048
26.084209
25.557167
25.289215
25.40155
25.879846
26.907929
27.59301
27.247355
26.818545
26.598613
26.370101
26.200991
26.042186
25.90932
25.784325
25.670131
25.56015
25.45416
25.34965
25.246147
25.14292
25.039604
24.93607
24.832341
24.728435
24.624594
24.521035
24.417998
24.315704
24.21429
24.113852
24.014439
23.915987
23.818633
23.722672
23.628346
23.53568
23.444827
23.355813
23.268724
23.183581
23.100412
23.019207
22.939912
22.862655
22.787384
22.714149
22.643085
22.574044
22.507111
22.44219
22.379358
22.318643
22.259949
22.203338
22.148692
22.096005
22.045173
21.996594
21.950094
21.90536
21.862332
21.821326
21.782137
21.744798
21.709262
21.675479
21.643427
21.613065
21.584368
21.557343
21.531935
21.508207
21.48608
21.465521
21.446525
21.429058
21.41307
21.398546
21.385423
21.373632
21.363155
21.354008
21.34613
21.33956
21.334144
21.329969
21.326904
21.324988
21.324131
21.324348
21.325474
21.327798
21.330996
21.335371
21.340442
21.346842
21.353857
21.362434
21.371529
21.382512
21.39384
21.407647
21.421824
21.439547
21.4579
21.48135