/*--------------------------------*- C++ -*----------------------------------*\
| =========                 |                                                 |
| \\      /  F ield         | OpenFOAM: The Open Source CFD Toolbox           |
|  \\    /   O peration     | Version:  2.4.0                                 |
|   \\  /    A nd           | Web:      www.OpenFOAM.org                      |
|    \\/     M anipulation  |                                                 |
\*---------------------------------------------------------------------------*/
FoamFile
{
    version     2.0;
    format      ascii;
    class       volScalarField;
    location    "500";
    object      p;
}
// * * * * * * * * * * * * * * * * * * * * * * * * * * * * * * * * * * * * * //

dimensions      [0 2 -2 0 0 0 0];

internalField   nonuniform List<scalar> 
32000
(
-0.16416395
-0.10665532
-0.11842302
-0.10779331
-0.10642188
-0.087274474
-0.070363361
-0.056212673
-0.050796483
-0.04651625
-0.044877072
-0.043243656
-0.042230084
-0.041131844
-0.040330404
-0.03957307
-0.039085708
-0.03874273
-0.038522099
-0.038399456
-0.038355112
-0.038354842
-0.03840132
-0.038444628
-0.038482964
-0.038470377
-0.038387506
-0.03822386
-0.037995459
-0.037697463
-0.037344682
-0.036945571
-0.036520653
-0.036090597
-0.035692252
-0.035353939
-0.035091954
-0.034887434
-0.034766985
-0.034726442
-0.034808758
-0.034996461
-0.035376808
-0.035879003
-0.036690832
-0.03760842
-0.039044622
-0.039754139
-0.040416673
-0.040734694
-0.040950503
-0.040931157
-0.040798077
-0.040493726
-0.040079616
-0.03953027
-0.038877803
-0.038110055
-0.037244034
-0.03627462
-0.035210846
-0.034051771
-0.032802344
-0.03146414
-0.030040205
-0.028532807
-0.026945072
-0.025279116
-0.023538974
-0.021727799
-0.019849932
-0.017908743
-0.015907531
-0.013850437
-0.011740544
-0.0095829139
-0.0073801064
-0.0051365055
-0.0028558909
-0.00054363712
0.0017959254
0.0041577731
0.0065387748
0.0089368625
0.011348783
0.013771613
0.016202695
0.018636905
0.02106883
0.023497678
0.025920819
0.028334361
0.030734647
0.033119677
0.035485453
0.037831471
0.040156459
0.04245931
0.044735164
0.046983781
0.049204759
0.051396939
0.053559182
0.055689812
0.057788331
0.05985318
0.061883986
0.063880927
0.06584342
0.067771219
0.069663926
0.071521909
0.073343755
0.075130297
0.076882032
0.078599309
0.080281538
0.081929367
0.083542809
0.085122594
0.086669529
0.088184161
0.089666516
0.091116991
0.092536696
0.093925707
0.095284944
0.096614819
0.097916022
0.099188296
0.10043424
0.10165242
0.10284455
0.10400916
0.10515038
0.10626582
0.10736017
0.10842811
0.1094769
0.1104979
0.11150391
0.11248205
0.11344971
0.11438679
0.11531942
0.11621732
0.11712162
0.11798564
0.11887047
0.11970449
0.12058049
0.12139283
0.12227873
0.12308087
0.12401794
0.12490276
0.12588551
0.1268406
0.12787087
0.12888853
0.1299621
0.13102968
0.13213043
0.13321708
0.13430094
0.13533549
0.13628615
0.13709283
0.1377205
0.13810118
0.1382019
0.13794432
0.1373169
0.13624807
0.13480268
0.13296913
0.13082986
0.12824245
0.12519452
0.12158803
0.11731349
0.11219668
0.10600003
0.098353201
0.08848058
0.075502488
0.059446421
0.038864441
0.014103984
-0.017932193
-0.055403748
-0.10395612
-0.15649581
-0.21816052
-0.25881977
-0.28363436
-0.27628681
-0.27064404
-0.23869511
-0.23322964
-0.16417027
-0.10666064
-0.11841972
-0.10779288
-0.10641856
-0.087318173
-0.070418285
-0.056267034
-0.050826973
-0.046540643
-0.044889538
-0.043255447
-0.042239218
-0.04114093
-0.040337805
-0.039579587
-0.039090042
-0.03874573
-0.038524006
-0.038400381
-0.038355379
-0.038354596
-0.038400724
-0.038443996
-0.038482452
-0.038470382
-0.03838825
-0.038225351
-0.037997631
-0.037700293
-0.037348048
-0.036949328
-0.036524589
-0.03609445
-0.035695697
-0.035356694
-0.03509409
-0.034888984
-0.034768005
-0.034726857
-0.034808779
-0.034995962
-0.035376196
-0.035878124
-0.036690247
-0.037607672
-0.039043245
-0.03975254
-0.040415428
-0.040733373
-0.040949278
-0.040929896
-0.040796841
-0.040492464
-0.040078351
-0.039528981
-0.038876504
-0.038108732
-0.037242701
-0.036273267
-0.035209493
-0.034050402
-0.032800983
-0.031462773
-0.030038855
-0.028531461
-0.026943746
-0.025277811
-0.023537692
-0.021726551
-0.019848716
-0.017907561
-0.015906396
-0.013849341
-0.011739505
-0.0095819178
-0.0073791719
-0.0051356248
-0.002855074
-0.00054288072
0.0017966085
0.0041584016
0.006539331
0.0089373648
0.011349214
0.013771977
0.016203002
0.018637124
0.021068999
0.02349778
0.025920857
0.028334336
0.030734555
0.03311953
0.035485249
0.037831207
0.040156145
0.042458939
0.044734745
0.046983312
0.049204245
0.051396382
0.053558578
0.055689171
0.057787648
0.059852463
0.061883236
0.063880143
0.065842609
0.067770376
0.069663059
0.071521014
0.073342841
0.075129359
0.076881081
0.078598335
0.080280554
0.081928363
0.083541799
0.085121568
0.0866685
0.088183117
0.089665469
0.091115935
0.092535639
0.093924643
0.095283882
0.09661375
0.097914958
0.099187229
0.10043318
0.10165135
0.10284349
0.1040081
0.10514934
0.10626477
0.10735913
0.10842708
0.10947588
0.11049689
0.11150292
0.11248106
0.11344874
0.11438582
0.11531848
0.1162164
0.11712072
0.11798477
0.11886963
0.11970368
0.12057974
0.12139212
0.12227809
0.12308043
0.12401808
0.12490375
0.12588741
0.12684339
0.1278746
0.12889312
0.12996757
0.13103588
0.1321373
0.13322438
0.13430846
0.13534273
0.13629255
0.13709785
0.13772357
0.13810176
0.13819939
0.13793834
0.13730701
0.13623443
0.1347856
0.13294906
0.1308063
0.12821459
0.12516203
0.12154973
0.11726814
0.11214225
0.10593371
0.098269513
0.088371276
0.075367444
0.059278668
0.038665841
0.013860359
-0.018206472
-0.055728499
-0.10428704
-0.15682399
-0.21837296
-0.25889874
-0.28361676
-0.27625658
-0.27061614
-0.23868242
-0.23322914
-0.16417657
-0.10666544
-0.11841613
-0.10779086
-0.10641389
-0.087364939
-0.07047718
-0.056326158
-0.050860465
-0.04656765
-0.044903325
-0.043268485
-0.042249298
-0.04115097
-0.040345983
-0.039586802
-0.039094844
-0.038749049
-0.03852611
-0.038401392
-0.038355658
-0.038354303
-0.038400036
-0.038443263
-0.038481848
-0.038470346
-0.038389036
-0.03822697
-0.038000008
-0.037703402
-0.037351754
-0.036953471
-0.036528936
-0.036098719
-0.035699523
-0.035359765
-0.035096483
-0.034890731
-0.034769175
-0.034727359
-0.034808839
-0.034995438
-0.035375539
-0.035877146
-0.036689577
-0.037606758
-0.039041701
-0.039750694
-0.040414
-0.040731862
-0.040947885
-0.040928465
-0.040795446
-0.040491041
-0.040076931
-0.039527535
-0.038875051
-0.038107253
-0.037241214
-0.036271758
-0.035207988
-0.034048881
-0.032799477
-0.031461259
-0.030037364
-0.028529975
-0.026942286
-0.025276376
-0.023536285
-0.021725185
-0.01984739
-0.017906272
-0.015905163
-0.013848148
-0.01173838
-0.0095808351
-0.0073781622
-0.0051346734
-0.002854195
-0.00054206706
0.0017973396
0.0041590779
0.0065399248
0.0089379043
0.011349671
0.013772361
0.016203326
0.018637341
0.021069167
0.023497873
0.025920877
0.028334287
0.030734426
0.033119342
0.035484999
0.037830891
0.040155773
0.042458503
0.044734256
0.046982767
0.049203652
0.051395742
0.053557885
0.055688439
0.057786867
0.059851644
0.061882381
0.06387925
0.065841687
0.067769418
0.069662077
0.071519998
0.073341808
0.075128298
0.076880006
0.078597232
0.080279445
0.081927229
0.083540662
0.085120412
0.086667343
0.088181941
0.089664294
0.091114748
0.092534452
0.093923448
0.09528269
0.096612551
0.097913765
0.099186033
0.10043199
0.10165016
0.10284231
0.10400692
0.10514817
0.10626361
0.10735797
0.10842593
0.10947475
0.11049575
0.11150181
0.11247995
0.11344766
0.11438475
0.11531745
0.11621537
0.11711974
0.1179838
0.11886871
0.11970279
0.12057892
0.12139133
0.12227739
0.12307995
0.12401824
0.12490483
0.12588949
0.12684644
0.12787868
0.12889814
0.12997355
0.13104266
0.13214482
0.13323237
0.1343167
0.13535064
0.13629956
0.13710332
0.13772687
0.13810227
0.13819647
0.1379316
0.13729596
0.13621925
0.13476664
0.1329268
0.13078018
0.12818369
0.12512602
0.12150728
0.11721786
0.11208191
0.10586014
0.098176674
0.088250114
0.075217942
0.05909314
0.038446559
0.013590769
-0.018507678
-0.05608486
-0.10464604
-0.15717533
-0.21859143
-0.25896887
-0.28358524
-0.27621602
-0.27058248
-0.23866628
-0.23322856
-0.16418163
-0.1066691
-0.11841127
-0.10778723
-0.10640808
-0.087411929
-0.07053574
-0.056385332
-0.050894115
-0.046595088
-0.044917301
-0.043281773
-0.042259549
-0.041161205
-0.040354314
-0.039594156
-0.039099738
-0.038752428
-0.038528239
-0.038402404
-0.038355919
-0.038353983
-0.038399312
-0.038442493
-0.038481212
-0.038470293
-0.038389828
-0.03822862
-0.038002443
-0.037706596
-0.03735557
-0.036957746
-0.036533425
-0.036103142
-0.035703496
-0.035362975
-0.035099004
-0.034892587
-0.03477044
-0.034727935
-0.034808944
-0.034994936
-0.035374868
-0.03587614
-0.03668884
-0.037605819
-0.039040277
-0.039748914
-0.040412608
-0.040730389
-0.04094652
-0.040927059
-0.040794067
-0.040489634
-0.04007552
-0.039526097
-0.038873603
-0.038105776
-0.03723973
-0.036270247
-0.035206485
-0.034047355
-0.03279797
-0.03145974
-0.030035871
-0.028528484
-0.026940821
-0.025274937
-0.023534872
-0.021723816
-0.019846059
-0.017904977
-0.015903927
-0.013846947
-0.011737252
-0.0095797467
-0.0073771489
-0.0051337167
-0.0028533129
-0.00054124986
0.0017980699
0.0041597582
0.0065405193
0.0089384502
0.011350133
0.013772749
0.016203657
0.018637554
0.021069336
0.023497966
0.025920896
0.028334235
0.030734292
0.033119149
0.035484745
0.037830567
0.040155396
0.042458059
0.04473376
0.046982213
0.04920305
0.051395093
0.05355718
0.055687696
0.057786073
0.059850811
0.061881513
0.063878342
0.065840751
0.067768443
0.069661079
0.071518965
0.073340759
0.075127218
0.076878915
0.07859611
0.080278319
0.081926073
0.083539506
0.085119235
0.086666167
0.088180742
0.089663098
0.09111354
0.092533245
0.09392223
0.095281478
0.096611328
0.097912551
0.099184815
0.10043078
0.10164894
0.1028411
0.10400571
0.10514698
0.10626242
0.10735679
0.10842475
0.10947359
0.1104946
0.11150068
0.11247883
0.11344657
0.11438366
0.1153164
0.11621433
0.11711874
0.11798282
0.11886777
0.11970188
0.12057808
0.12139053
0.12227668
0.12307944
0.12401839
0.12490592
0.12589159
0.12684954
0.12788284
0.12890327
0.12997966
0.13104961
0.13215251
0.13324055
0.13432513
0.13535873
0.13630673
0.13710891
0.13773023
0.13810278
0.13819346
0.13792466
0.13728463
0.1362037
0.13474721
0.13290397
0.1307534
0.128152
0.12508908
0.12146374
0.11716626
0.11201999
0.10578463
0.098081414
0.088125971
0.075065036
0.058903738
0.038223309
0.013315898
-0.018811608
-0.056443112
-0.10500016
-0.15751297
-0.21878317
-0.25900824
-0.28352964
-0.27616232
-0.27054262
-0.23864815
-0.23322681
-0.16418553
-0.10667176
-0.118404
-0.10778086
-0.10639988
-0.087460542
-0.070596203
-0.056446478
-0.050929012
-0.046623832
-0.044931949
-0.043295768
-0.042270348
-0.041172007
-0.040363107
-0.039601921
-0.039104908
-0.038755997
-0.038530483
-0.038403465
-0.038356185
-0.038353636
-0.03839854
-0.038441676
-0.038480541
-0.038470242
-0.038390675
-0.038230382
-0.038005048
-0.037710017
-0.037359663
-0.03696234
-0.036538259
-0.036107921
-0.035707808
-0.035366492
-0.035101798
-0.034894685
-0.034771898
-0.034728659
-0.034809148
-0.034994483
-0.035374198
-0.035875111
-0.036688047
-0.037604897
-0.039038993
-0.039747199
-0.040411243
-0.040728945
-0.040945163
-0.040925658
-0.040792681
-0.040488215
-0.040074089
-0.039524635
-0.038872126
-0.038104267
-0.037238209
-0.036268695
-0.035204941
-0.034045784
-0.032796419
-0.031458173
-0.030034332
-0.028526944
-0.026939308
-0.02527345
-0.02353341
-0.0217224
-0.019844682
-0.017903634
-0.015902646
-0.0138457
-0.011736083
-0.0095786155
-0.0073760976
-0.005132723
-0.002852397
-0.000540401
0.0017988272
0.0041604659
0.0065411375
0.0089390208
0.011350614
0.013773155
0.016204005
0.018637774
0.021069514
0.023498065
0.025920918
0.028334182
0.030734153
0.033118949
0.035484482
0.037830231
0.040155004
0.042457596
0.044733244
0.046981636
0.049202422
0.051394417
0.053556444
0.055686921
0.057785243
0.059849941
0.061880607
0.063877393
0.065839773
0.067767423
0.069660036
0.071517883
0.073339661
0.075126088
0.076877773
0.078594934
0.08027714
0.081924862
0.083538295
0.085118001
0.086664935
0.088179486
0.089661846
0.091112273
0.092531979
0.093920953
0.095280207
0.096610045
0.097911277
0.099183536
0.1004295
0.10164767
0.10283984
0.10400444
0.10514573
0.10626116
0.10735555
0.10842351
0.10947237
0.11049338
0.1114995
0.11247764
0.11344541
0.1143825
0.11531529
0.11621323
0.11711768
0.11798178
0.11886678
0.11970092
0.12057719
0.12138968
0.12227592
0.12307887
0.12401851
0.12490706
0.12589379
0.12685282
0.12788724
0.12890871
0.12998613
0.13105697
0.13216067
0.13324923
0.13433408
0.13536733
0.13631435
0.13711485
0.1377338
0.13810332
0.13819027
0.13791731
0.13727262
0.13618723
0.13472664
0.13287978
0.13072499
0.12811839
0.12504987
0.12141752
0.11711148
0.11195424
0.10570441
0.09798027
0.087994411
0.074903344
0.058703938
0.037988632
0.013027458
-0.019127738
-0.056812556
-0.10535714
-0.15784011
-0.21894114
-0.25900308
-0.28343568
-0.27608638
-0.2704912
-0.23862655
-0.23322311
-0.16418823
-0.10667322
-0.11839335
-0.10776988
-0.10638744
-0.087509869
-0.070658678
-0.056509477
-0.050965178
-0.046653923
-0.04494733
-0.043310519
-0.042281752
-0.041183426
-0.040372416
-0.039610139
-0.039110392
-0.038759784
-0.038532862
-0.038404592
-0.038356468
-0.038353271
-0.038397726
-0.038440816
-0.038479839
-0.0384702
-0.038391589
-0.038232277
-0.038007851
-0.037713703
-0.037364081
-0.036967309
-0.036543505
-0.036113131
-0.035712543
-0.035370405
-0.035104956
-0.03489711
-0.034773641
-0.034729617
-0.034809531
-0.034994158
-0.035373598
-0.035874123
-0.036687257
-0.037604066
-0.039037892
-0.039745573
-0.040409919
-0.040727541
-0.040943825
-0.040924268
-0.040791291
-0.040486786
-0.040072639
-0.039523148
-0.038870617
-0.038102722
-0.037236648
-0.0362671
-0.035203353
-0.034044166
-0.032794821
-0.031456557
-0.030032744
-0.028525353
-0.026937744
-0.025271913
-0.023531898
-0.021720936
-0.019843257
-0.017902246
-0.015901321
-0.01384441
-0.011734874
-0.0095774452
-0.007375011
-0.0051316964
-0.0028514512
-0.00053952561
0.0017996072
0.0041611945
0.0065417734
0.0089396074
0.011351106
0.01377357
0.016204358
0.018637993
0.021069691
0.023498158
0.02592093
0.028334115
0.030733996
0.033118729
0.035484196
0.037829867
0.040154583
0.042457101
0.044732692
0.046981021
0.049201754
0.051393699
0.053555662
0.055686098
0.057784363
0.059849019
0.061879645
0.063876387
0.065838736
0.067766342
0.069658932
0.071516737
0.073338498
0.075124891
0.076876565
0.07859369
0.080275892
0.08192358
0.083537014
0.085116696
0.086663633
0.088178157
0.089660521
0.091110934
0.092530641
0.093919602
0.095278863
0.096608688
0.097909931
0.099182185
0.10042816
0.10164632
0.1028385
0.1040031
0.10514441
0.10625984
0.10735424
0.10842221
0.10947109
0.1104921
0.11149825
0.11247639
0.11344419
0.11438129
0.11531412
0.11621207
0.11711657
0.11798069
0.11886573
0.1196999
0.12057625
0.12138878
0.12227512
0.12307824
0.12401862
0.12490824
0.12589611
0.12685629
0.12789189
0.12891448
0.129993
0.13106479
0.13216933
0.13325846
0.13434358
0.13537646
0.13632243
0.13712114
0.13773758
0.13810388
0.13818687
0.1379095
0.13725987
0.13616975
0.13470479
0.13285408
0.13069479
0.12808264
0.12500816
0.12136832
0.11705314
0.11188422
0.10561896
0.097872604
0.087854724
0.074732106
0.058493031
0.037742028
0.012725538
-0.019455696
-0.057190993
-0.10571244
-0.15814724
-0.21904921
-0.25893456
-0.28328709
-0.27597746
-0.27042223
-0.23859915
-0.23321664
-0.16418971
-0.10667326
-0.11837809
-0.10775185
-0.10636819
-0.087558443
-0.070723077
-0.056574103
-0.051002511
-0.046685312
-0.044963451
-0.043326035
-0.042293787
-0.04119549
-0.040382272
-0.039618839
-0.039116213
-0.038763808
-0.038535391
-0.038405798
-0.038356777
-0.038352893
-0.038396877
-0.038439919
-0.038479114
-0.038470177
-0.038392586
-0.038234325
-0.03801088
-0.03771769
-0.03736887
-0.036972712
-0.036549236
-0.036118855
-0.035717795
-0.035374815
-0.035108583
-0.034899971
-0.034775779
-0.034730923
-0.034810204
-0.034994064
-0.035373167
-0.035873271
-0.036686561
-0.037603436
-0.039037045
-0.039744077
-0.04040866
-0.040726197
-0.040942519
-0.040922899
-0.040789905
-0.040485351
-0.040071171
-0.039521638
-0.038869077
-0.038101142
-0.037235047
-0.036265464
-0.035201719
-0.034042501
-0.032793176
-0.031454891
-0.030031107
-0.028523715
-0.026936131
-0.025270329
-0.02353034
-0.021719429
-0.01984179
-0.017900818
-0.01589996
-0.013843085
-0.011733636
-0.0095762484
-0.0073739018
-0.0051306514
-0.0028504906
-0.0005386405
0.0018003932
0.0041619245
0.0065424073
0.0089401872
0.011351587
0.013773971
0.016204689
0.018638188
0.021069839
0.023498218
0.025920903
0.028334005
0.030733792
0.033118457
0.035483855
0.037829445
0.040154101
0.04245654
0.044732072
0.046980334
0.049201012
0.051392903
0.0535548
0.055685192
0.057783397
0.05984801
0.061878596
0.063875292
0.065837609
0.067765169
0.069657733
0.071515496
0.07333724
0.075123599
0.076875259
0.078592348
0.080274547
0.081922201
0.083535635
0.085115293
0.086662232
0.088176731
0.089659099
0.091109497
0.092529206
0.093918156
0.095277424
0.096607237
0.097908491
0.099180741
0.10042672
0.10164487
0.10283708
0.10400167
0.10514301
0.10625843
0.10735285
0.10842082
0.10946973
0.11049074
0.11149692
0.11247506
0.1134429
0.11438
0.11531288
0.11621084
0.11711539
0.11797954
0.11886462
0.11969883
0.12057525
0.12138783
0.12227427
0.12307754
0.12401871
0.12490948
0.12589856
0.12685996
0.12789681
0.12892059
0.13000027
0.13107307
0.1321785
0.13326822
0.13435364
0.13538612
0.13633097
0.13712777
0.13774152
0.1381044
0.13818318
0.13790112
0.13724627
0.13615115
0.13468157
0.13282675
0.13066264
0.12804459
0.12496374
0.1213159
0.11699097
0.11180957
0.10552786
0.097757912
0.087706384
0.074550841
0.058270667
0.037483529
0.012410749
-0.019794177
-0.057575228
-0.10606029
-0.15842346
-0.21909021
-0.25878246
-0.28306566
-0.27582262
-0.27032788
-0.23856258
-0.23320607
-0.16418982
-0.10667161
-0.11835666
-0.10772358
-0.10633858
-0.087604152
-0.070789235
-0.056640245
-0.051040889
-0.046717952
-0.044980312
-0.043342326
-0.042306482
-0.041208229
-0.040392711
-0.039628053
-0.039122401
-0.038768091
-0.038538086
-0.038407095
-0.03835712
-0.03835251
-0.038395996
-0.03843899
-0.038478371
-0.038470182
-0.038393678
-0.038236549
-0.038014169
-0.037722023
-0.037374088
-0.036978619
-0.03655554
-0.036125195
-0.035723679
-0.035379848
-0.035112813
-0.034903409
-0.034778457
-0.034732723
-0.034811313
-0.034994347
-0.035373044
-0.035872693
-0.036686089
-0.037603154
-0.039036529
-0.039742755
-0.040407491
-0.040724929
-0.040941252
-0.040921555
-0.040788521
-0.040483907
-0.04006968
-0.039520098
-0.038867498
-0.03809952
-0.037233397
-0.036263777
-0.035200033
-0.034040782
-0.032791477
-0.031453173
-0.030029418
-0.028522026
-0.026934471
-0.025268701
-0.023528741
-0.021717886
-0.01984029
-0.017899364
-0.015898577
-0.013841744
-0.011732388
-0.0095750503
-0.0073727975
-0.0051296191
-0.0028495493
-0.00053778288
0.0018011456
0.0041626122
0.0065429931
0.0089407103
0.011352004
0.013774301
0.016204941
0.018638299
0.021069894
0.023498178
0.025920771
0.028333781
0.030733471
0.033118061
0.035483386
0.037828889
0.04015348
0.042455836
0.044731305
0.046979497
0.049200116
0.051391952
0.05355378
0.055684126
0.05778227
0.059846837
0.061877381
0.063874029
0.065836314
0.067763827
0.069656366
0.071514087
0.073335813
0.075122138
0.076873787
0.07859084
0.080273036
0.081920659
0.083534093
0.08511373
0.086660673
0.088175147
0.089657521
0.091107908
0.09252762
0.093916561
0.095275838
0.096605641
0.097906909
0.099179158
0.10042514
0.1016433
0.10283552
0.10400012
0.10514148
0.1062569
0.10735133
0.10841931
0.10946825
0.11048927
0.11149549
0.11247364
0.11344151
0.11437862
0.11531155
0.11620953
0.11711413
0.11797831
0.11886345
0.11969769
0.1205742
0.12138683
0.12227338
0.1230768
0.1240188
0.12491077
0.12590113
0.12686382
0.12790201
0.12892703
0.13000795
0.13108181
0.13218818
0.13327852
0.13436423
0.13539627
0.13633992
0.13713466
0.13774555
0.13810477
0.13817907
0.13789203
0.13723165
0.13613124
0.13465677
0.13279757
0.1306283
0.12800395
0.12491628
0.12125989
0.11692451
0.11172977
0.1054305
0.09763545
0.087548598
0.074358758
0.05803615
0.037212788
0.012083266
-0.020142253
-0.057962473
-0.10639535
-0.15865842
-0.21904779
-0.25852656
-0.28275174
-0.27560661
-0.27019809
-0.23851197
-0.23318935
-0.16418813
-0.10666786
-0.11832722
-0.10768115
-0.10629396
-0.087643962
-0.070856702
-0.05670795
-0.051080161
-0.046751785
-0.044997901
-0.0433594
-0.042319864
-0.041221677
-0.040403773
-0.039637816
-0.039128986
-0.038772658
-0.038540966
-0.038408497
-0.038357509
-0.038352128
-0.038395091
-0.038438034
-0.038477616
-0.038470225
-0.038394882
-0.038238973
-0.038017755
-0.037726755
-0.037379804
-0.036985116
-0.036562522
-0.036132276
-0.035730339
-0.035385663
-0.035117815
-0.034907602
-0.034781863
-0.034735211
-0.034813056
-0.034995206
-0.035373422
-0.035872579
-0.03668603
-0.037603409
-0.039036421
-0.039741642
-0.040406421
-0.040723739
-0.040940018
-0.040920222
-0.040787123
-0.040482433
-0.040068145
-0.039518505
-0.038865857
-0.038097832
-0.037231677
-0.036262021
-0.035198275
-0.034038995
-0.03278971
-0.031451392
-0.030027669
-0.028520286
-0.026932765
-0.025267035
-0.023527113
-0.021716322
-0.019838779
-0.01789791
-0.015897204
-0.013840427
-0.011731177
-0.0095739017
-0.0073717553
-0.005128663
-0.0028486968
-0.0005370288
0.0018017824
0.0041631692
0.0065434364
0.0089410761
0.011352251
0.013774449
0.016204996
0.018638205
0.02106973
0.023497908
0.025920397
0.028333306
0.030732889
0.033117396
0.035482639
0.037828048
0.040152567
0.042454836
0.044730236
0.046978353
0.049198909
0.051390685
0.053552441
0.05568274
0.05778082
0.05984534
0.061875841
0.063872443
0.065834695
0.067762163
0.069654679
0.07151236
0.07333407
0.075120365
0.076872003
0.078589026
0.080271222
0.081918818
0.083532256
0.085111877
0.086658827
0.088173284
0.089655667
0.091106049
0.092525769
0.093914707
0.095273999
0.096603799
0.097905086
0.09917734
0.10042334
0.1016415
0.10283375
0.10399835
0.10513974
0.10625518
0.10734963
0.10841762
0.1094666
0.11048763
0.1114939
0.11247206
0.11343998
0.11437711
0.1153101
0.1162081
0.11711277
0.11797699
0.1188622
0.11969649
0.12057311
0.1213858
0.12227247
0.12307602
0.1240189
0.12491213
0.12590383
0.12686788
0.12790747
0.1289338
0.13001601
0.13109097
0.13219832
0.13328928
0.13437528
0.1354068
0.13634912
0.13714164
0.13774945
0.13810475
0.13817426
0.13788193
0.13721568
0.13610968
0.13463004
0.13276617
0.13059137
0.12796029
0.12486529
0.12119972
0.11685313
0.11164407
0.10532598
0.097504164
0.087380214
0.074154675
0.057788318
0.036928863
0.011742706
-0.020499745
-0.058350717
-0.10671355
-0.15884348
-0.21890806
-0.25814841
-0.28232582
-0.27531256
-0.27002086
-0.23844082
-0.23316342
-0.16418352
-0.10666115
-0.11828763
-0.10762015
-0.10622868
-0.087673717
-0.070924482
-0.056777511
-0.051120129
-0.046786734
-0.045016188
-0.043377256
-0.042333954
-0.041235865
-0.040415495
-0.039648166
-0.039136001
-0.038777531
-0.038544049
-0.038410016
-0.03835795
-0.038351753
-0.038394164
-0.038437055
-0.038476853
-0.038470313
-0.038396214
-0.038241627
-0.038021681
-0.037731945
-0.037386097
-0.036992304
-0.036570308
-0.036140249
-0.035737949
-0.035392456
-0.035123801
-0.034912777
-0.034786236
-0.03473864
-0.034815692
-0.034996906
-0.035374566
-0.035873193
-0.036686634
-0.037604431
-0.039036794
-0.039740758
-0.04040544
-0.040722603
-0.040938782
-0.040918862
-0.040785667
-0.040480885
-0.04006652
-0.039516814
-0.03886411
-0.038096037
-0.037229847
-0.03626016
-0.035196414
-0.034037113
-0.032787855
-0.031449534
-0.030025854
-0.028518494
-0.02693102
-0.025265346
-0.023525479
-0.02171477
-0.019837299
-0.017896508
-0.015895903
-0.013839206
-0.011730085
-0.0095728967
-0.0073708801
-0.0051278988
-0.0028480597
-0.00053651553
0.0018021556
0.0041634376
0.006543569
0.0089411067
0.01135214
0.013774219
0.016204647
0.018637689
0.021069125
0.023497178
0.025919544
0.028332333
0.030731798
0.033116205
0.035481354
0.037826657
0.040151093
0.042453265
0.044728589
0.046976624
0.04919711
0.051388823
0.053550504
0.055680752
0.057778768
0.059843241
0.0618737
0.063870257
0.065832479
0.067759904
0.0696524
0.071510047
0.073331746
0.075118017
0.076869653
0.078586654
0.080268857
0.081916436
0.083529887
0.085109503
0.086656469
0.088170919
0.089653322
0.09110371
0.09252345
0.093912396
0.095271715
0.096601525
0.097902842
0.099175113
0.10042114
0.10163932
0.10283161
0.10399623
0.10513767
0.10625312
0.10734762
0.10841563
0.10946466
0.11048572
0.11149205
0.11247024
0.11343822
0.11437539
0.11530847
0.11620651
0.11711126
0.11797554
0.11886085
0.11969521
0.12057197
0.12138474
0.12227159
0.12307528
0.12401904
0.12491357
0.12590666
0.12687211
0.12791316
0.12894083
0.13002439
0.13110047
0.13220882
0.13330037
0.1343866
0.13541748
0.13635831
0.13714838
0.13775284
0.1381039
0.13816829
0.13787029
0.13719781
0.13608591
0.13460082
0.13273198
0.13055122
0.12791292
0.12481003
0.12113457
0.11677591
0.11155142
0.10521307
0.097362585
0.08719962
0.073936878
0.057525409
0.036629969
0.011387944
-0.020867683
-0.058739358
-0.10701308
-0.15897327
-0.21866147
-0.25763383
-0.28177097
-0.27492364
-0.26978329
-0.2383413
-0.23312422
-0.16417403
-0.10664998
-0.11823545
-0.10753619
-0.10613671
-0.08768821
-0.070990769
-0.056849631
-0.05116055
-0.046822698
-0.045035122
-0.043395879
-0.042348765
-0.041250823
-0.040427914
-0.039659142
-0.039143478
-0.038782739
-0.038547352
-0.038411666
-0.038358454
-0.038351389
-0.038393219
-0.038436055
-0.038476087
-0.038470455
-0.038397691
-0.038244542
-0.038025997
-0.037737665
-0.037393061
-0.037000303
-0.036579047
-0.036149295
-0.035746724
-0.035400465
-0.035131031
-0.034919216
-0.034791846
-0.034743333
-0.034819561
-0.034999796
-0.035376821
-0.035874876
-0.036688215
-0.037606487
-0.039037697
-0.03974009
-0.040404501
-0.040721462
-0.040937475
-0.040917399
-0.040784079
-0.040479187
-0.040064732
-0.039514954
-0.038862192
-0.038094074
-0.037227854
-0.036258145
-0.035194411
-0.034035104
-0.03278589
-0.031447586
-0.030023969
-0.028516657
-0.026929257
-0.025263667
-0.023523886
-0.021713291
-0.019835925
-0.017895247
-0.015894778
-0.013838201
-0.01172925
-0.0095721865
-0.0073703395
-0.0051275097
-0.0028478369
-0.00053645738
0.0018020353
0.0041631731
0.0065431318
0.0089405298
0.011351385
0.01377331
0.016203584
0.018636428
0.021067741
0.02349564
0.025917855
0.028330498
0.030729819
0.033114104
0.03547914
0.037824317
0.040148656
0.042450717
0.044725953
0.046973894
0.049194302
0.051385946
0.053547547
0.055677741
0.057775692
0.059840119
0.061870537
0.063867052
0.06582925
0.067756639
0.069649123
0.071506744
0.073328443
0.075114703
0.076866348
0.07858334
0.080265565
0.081913143
0.083526622
0.085106251
0.08665325
0.088167713
0.089650153
0.091100567
0.092520344
0.093909321
0.095268687
0.096598525
0.097899895
0.099172205
0.10041828
0.1016365
0.10282885
0.10399351
0.10513502
0.10625052
0.10734508
0.10841315
0.10946225
0.11048337
0.11148979
0.11246802
0.11343611
0.11437334
0.11530653
0.11620465
0.11710954
0.11797391
0.11885937
0.11969384
0.12057079
0.1213837
0.1222708
0.12307465
0.12401929
0.1249151
0.1259096
0.12687646
0.12791899
0.128948
0.13003292
0.13111011
0.13221943
0.1333115
0.13439783
0.13542789
0.13636698
0.13715431
0.13775507
0.13810152
0.13816036
0.13785628
0.13717716
0.13605903
0.13456819
0.13269407
0.13050688
0.12786082
0.12474941
0.12106325
0.11669152
0.11145032
0.10509006
0.09720871
0.087004589
0.073702973
0.05724485
0.036313265
0.01101674
-0.021248672
-0.059129948
-0.10729531
-0.15904718
-0.21830469
-0.25697536
-0.2810754
-0.27442537
-0.26947318
-0.2382051
-0.23306701
-0.16415705
-0.10663212
-0.11816796
-0.10742534
-0.10601234
-0.087681595
-0.071052708
-0.056925683
-0.051201133
-0.046859551
-0.045054631
-0.043415246
-0.042364305
-0.041266577
-0.04044107
-0.039670785
-0.039151454
-0.038788307
-0.038550898
-0.03841346
-0.038359029
-0.038351042
-0.038392259
-0.038435036
-0.038475322
-0.03847066
-0.038399333
-0.038247753
-0.038030758
-0.037743995
-0.037400804
-0.037009255
-0.036588916
-0.036159634
-0.035756921
-0.035409985
-0.03513983
-0.034927272
-0.034799139
-0.034749696
-0.034825091
-0.035004318
-0.03538063
-0.035878058
-0.036691156
-0.037609869
-0.039039149
-0.039739597
-0.040403522
-0.040720219
-0.040935993
-0.040915729
-0.040782254
-0.040477237
-0.040062685
-0.039512834
-0.038860019
-0.038091866
-0.037225631
-0.03625592
-0.035192218
-0.034032934
-0.032783793
-0.03144554
-0.030022024
-0.028514801
-0.026927516
-0.025262058
-0.023522409
-0.02171198
-0.019834769
-0.017894259
-0.015893982
-0.013837584
-0.011728862
-0.0095719802
-0.0073703627
-0.0051277441
-0.002848296
-0.00053714121
0.0018011155
0.0041620528
0.0065417841
0.0089389891
0.011349612
0.013771334
0.016201403
0.018634001
0.021065149
0.023492851
0.025914873
0.028327331
0.030726475
0.033110607
0.035475503
0.037820526
0.040144745
0.042446676
0.044721807
0.04696964
0.049189959
0.051381527
0.05354304
0.055673178
0.057771061
0.059835443
0.061865824
0.063862304
0.065824485
0.067751846
0.069644332
0.071501939
0.073323655
0.075109919
0.076861592
0.078578596
0.080260865
0.081908464
0.083521995
0.085101662
0.086648721
0.088163221
0.089645727
0.091096196
0.09251604
0.093905075
0.095264519
0.096594418
0.097895872
0.099168253
0.10041441
0.1016327
0.10282515
0.10398989
0.1051315
0.10624707
0.10734174
0.10840989
0.10945911
0.11048032
0.11148688
0.11246521
0.11343344
0.11437078
0.11530415
0.11620239
0.11710748
0.117972
0.11885769
0.11969233
0.12056958
0.1213827
0.12227016
0.12307428
0.12401972
0.12491674
0.12591262
0.12688083
0.12792483
0.12895514
0.13004138
0.13111958
0.13222978
0.1333222
0.13440845
0.13543738
0.13637439
0.13715858
0.1377552
0.13809656
0.13814935
0.1378387
0.13715248
0.13602777
0.13453089
0.13265117
0.13045703
0.1278026
0.12468194
0.12098415
0.11659822
0.11133882
0.10495474
0.097039935
0.086792237
0.073449808
0.05694322
0.035974773
0.01062552
-0.021647194
-0.059526599
-0.10756486
-0.15906987
-0.21784143
-0.25617336
-0.28023408
-0.27380769
-0.26908067
-0.23802439
-0.23298701
-0.16412983
-0.10660489
-0.11808229
-0.10728439
-0.105851
-0.087648047
-0.071106365
-0.057007963
-0.051241536
-0.046897144
-0.045074625
-0.04343532
-0.042380577
-0.041283155
-0.040455002