0.44811795 	0 	0 	0 	0 	0 	0
0.44874907 	8.2880475e-16 	-1.0430935e-16 	2.325852e-32 	6.6666667e-16 	0 	6.6666667e-16
0.44941127 	6.6666667e-16 	4.1263643e-32 	5.004012e-32 	6.6666667e-16 	0 	6.6666667e-16
0.45010601 	6.6666667e-16 	-3.4069015e-31 	2.3360729e-32 	6.6666667e-16 	0 	6.6666667e-16
0.45083487 	6.6666667e-16 	-6.7019459e-31 	4.4364047e-32 	6.6666667e-16 	0 	6.6666667e-16
0.45159953 	6.6666667e-16 	2.600184e-31 	-3.775033e-32 	6.6666667e-16 	0 	6.6666667e-16
0.45240175 	6.6666667e-16 	2.9213437e-31 	-4.4432306e-32 	6.6666667e-16 	0 	6.6666667e-16
0.45324337 	6.6666667e-16 	-3.0056904e-31 	3.6311882e-32 	6.6666667e-16 	0 	6.6666667e-16
0.45412632 	6.6666667e-16 	-2.8825219e-32 	-1.3621813e-34 	6.6666667e-16 	0 	6.6666667e-16
0.45505264 	6.6666667e-16 	-2.572705e-31 	3.8405936e-33 	6.6666667e-16 	0 	6.6666667e-16
0.45602446 	6.6666667e-16 	1.7829806e-32 	-1.7758575e-32 	6.6666667e-16 	0 	6.6666667e-16
0.457044 	6.6666667e-16 	5.1032272e-31 	-8.5759352e-34 	6.6666667e-16 	0 	6.6666667e-16
0.45811362 	6.6666667e-16 	-1.4109506e-32 	1.6950874e-32 	6.6666667e-16 	0 	6.6666667e-16
0.45923576 	6.6666667e-16 	3.7000856e-31 	-1.5690103e-33 	6.6666667e-16 	0 	6.6666667e-16
0.460413 	6.6666667e-16 	2.1630997e-31 	1.4408068e-32 	6.6666667e-16 	0 	6.6666667e-16
0.46164805 	6.6666667e-16 	-4.2886234e-31 	1.468468e-32 	6.6666667e-16 	0 	6.6666667e-16
0.46294375 	6.6666667e-16 	1.8037681e-32 	-1.3155974e-32 	6.6666667e-16 	0 	6.6666667e-16
0.46430307 	6.6666667e-16 	1.9587064e-31 	-2.3494302e-32 	6.6666667e-16 	0 	6.6666667e-16
0.46572914 	6.6666667e-16 	8.8556707e-33 	-1.5870029e-33 	6.6666667e-16 	0 	6.6666667e-16
0.46722522 	6.6666667e-16 	-2.5539835e-32 	1.207302e-32 	6.6666667e-16 	0 	6.6666667e-16
0.46879475 	6.6666667e-16 	2.1383551e-32 	9.865808e-33 	6.6666667e-16 	0 	6.6666667e-16
0.47044133 	6.6666667e-16 	-4.3785889e-31 	8.952427e-33 	6.6666667e-16 	0 	6.6666667e-16
0.47216875 	6.6666667e-16 	-1.5462979e-31 	1.844257e-33 	6.6666667e-16 	0 	6.6666667e-16
0.47398097 	6.6666667e-16 	1.2994808e-31 	-1.8024368e-32 	6.6666667e-16 	0 	6.6666667e-16
0.47588214 	6.6666667e-16 	-1.1253666e-33 	-1.7436711e-32 	6.6666667e-16 	0 	6.6666667e-16
0.47787663 	6.6666667e-16 	-2.3285142e-31 	8.5474591e-33 	6.6666667e-16 	0 	6.6666667e-16
0.47996902 	6.6666667e-16 	-1.3928079e-31 	-9.9918713e-34 	6.6666667e-16 	0 	6.6666667e-16
0.48216409 	6.6666667e-16 	1.1860607e-31 	2.2507539e-34 	6.6666667e-16 	0 	6.6666667e-16
0.48446689 	6.6666667e-16 	1.2824583e-33 	1.478045e-32 	6.6666667e-16 	0 	6.6666667e-16
0.4868827 	6.6666667e-16 	-9.2083943e-32 	2.5050904e-34 	6.6666667e-16 	0 	6.6666667e-16
0.48941704 	6.6666667e-16 	1.8375438e-33 	-1.2938351e-32 	6.6666667e-16 	0 	6.6666667e-16
0.49207574 	6.6666667e-16 	8.9606375e-32 	-7.090377e-33 	6.6666667e-16 	0 	6.6666667e-16
0.49486488 	6.6666667e-16 	-7.0125088e-33 	5.7721895e-33 	6.6666667e-16 	0 	6.6666667e-16
0.49779085 	6.6666667e-16 	9.0861122e-32 	2.5845015e-34 	6.6666667e-16 	0 	6.6666667e-16
0.50086035 	6.6666667e-16 	8.5834958e-33 	5.5165184e-35 	6.6666667e-16 	0 	6.6666667e-16
0.50408041 	6.6666667e-16 	-1.6512029e-31 	1.0482681e-32 	6.6666667e-16 	0 	6.6666667e-16
0.50745841 	6.6666667e-16 	-7.7494287e-32 	3.62448e-34 	6.6666667e-16 	0 	6.6666667e-16
0.51100206 	6.6666667e-16 	4.3491583e-33 	4.5580633e-33 	6.6666667e-16 	0 	6.6666667e-16
0.51471949 	6.6666667e-16 	-3.049729e-33 	-4.3765657e-33 	6.6666667e-16 	0 	6.6666667e-16
0.51861919 	6.6666667e-16 	1.3163672e-31 	-4.9689086e-33 	6.6666667e-16 	0 	6.6666667e-16
0.52271007 	6.6666667e-16 	6.3260495e-33 	8.7164916e-33 	6.6666667e-16 	0 	6.6666667e-16
0.5270015 	6.6666667e-16 	-7.0449967e-32 	-2.1191589e-34 	6.6666667e-16 	0 	6.6666667e-16
0.53150328 	6.6666667e-16 	5.6174365e-32 	-7.3929234e-33 	6.6666667e-16 	0 	6.6666667e-16
0.53622568 	6.6666667e-16 	-3.7269152e-33 	-3.7954792e-33 	6.6666667e-16 	0 	6.6666667e-16
0.5411795 	6.6666667e-16 	1.0601266e-31 	6.889082e-33 	6.6666667e-16 	0 	6.6666667e-16
0.54637604 	6.6666667e-16 	5.7321015e-32 	2.0857922e-34 	6.6666667e-16 	0 	6.6666667e-16
0.55182715 	6.6666667e-16 	-1.9667869e-33 	-6.2836389e-33 	6.6666667e-16 	0 	6.6666667e-16
0.55754527 	6.6666667e-16 	9.4981928e-32 	-1.4858733e-34 	6.6666667e-16 	0 	6.6666667e-16
0.56354344 	6.6666667e-16 	1.9408454e-33 	5.7691851e-33 	6.6666667e-16 	0 	6.6666667e-16
0.56983532 	6.6666667e-16 	-4.3723019e-32 	2.7973684e-33 	6.6666667e-16 	0 	6.6666667e-16
0.57177745 	6.6666667e-16 	-4.2231646e-32 	4.5752066e-34 	6.6666667e-16 	0 	6.6666667e-16
0.57643611 	6.6666667e-16 	-3.9214884e-32 	-5.1562551e-33 	6.6666667e-16 	0 	6.6666667e-16
0.58336037 	6.6666667e-16 	-4.0419666e-32 	-5.0988102e-33 	6.6666667e-16 	0 	6.6666667e-16
0.5906235 	6.6666667e-16 	8.5026891e-34 	4.6060245e-33 	6.6666667e-16 	0 	6.6666667e-16
0.59824201 	6.6666667e-16 	2.2316768e-35 	2.4019087e-33 	6.6666667e-16 	0 	6.6666667e-16
0.60623322 	6.6666667e-16 	-1.0451539e-33 	-2.0606716e-33 	6.6666667e-16 	0 	6.6666667e-16
0.61461528 	6.6666667e-16 	1.3601234e-33 	-1.9352765e-33 	6.6666667e-16 	0 	6.6666667e-16
0.6234072 	6.6666667e-16 	2.7128336e-32 	1.9589999e-33 	6.6666667e-16 	0 	6.6666667e-16
0.63262893 	6.6666667e-16 	2.5373245e-32 	1.9221231e-33 	6.6666667e-16 	0 	6.6666667e-16
0.64230138 	6.6666667e-16 	-2.918152e-32 	-1.9920201e-33 	6.6666667e-16 	0 	6.6666667e-16
0.65244644 	6.6666667e-16 	-2.9862186e-32 	1.8135769e-33 	6.6666667e-16 	0 	6.6666667e-16
0.66308708 	6.6666667e-16 	4.543856e-32 	1.4276995e-33 	6.6666667e-16 	0 	6.6666667e-16
0.67424737 	6.6666667e-16 	4.6416116e-32 	-6.7094173e-35 	6.6666667e-16 	0 	6.6666667e-16
0.68595251 	6.6666667e-16 	-3.7738621e-32 	-1.066157e-33 	6.6666667e-16 	0 	6.6666667e-16
0.69822894 	6.6666667e-16 	-4.412669e-32 	-1.6215337e-33 	6.6666667e-16 	0 	6.6666667e-16
0.71110435 	6.6666667e-16 	-3.8204844e-34 	-1.0848039e-35 	6.6666667e-16 	0 	6.6666667e-16
0.72460775 	6.6666667e-16 	3.9455436e-32 	-1.0626548e-33 	6.6666667e-16 	0 	6.6666667e-16
0.73876954 	6.6666667e-16 	-4.7578448e-33 	-8.0586666e-35 	6.6666667e-16 	0 	6.6666667e-16
0.75362158 	6.6666667e-16 	-3.76326e-32 	2.3397513e-33 	6.6666667e-16 	0 	6.6666667e-16
0.76919722 	6.6666667e-16 	0 	6.4832216e-35 	6.6666667e-16 	0 	6.6666667e-16
0.78553143 	6.6666667e-16 	-6.3491859e-33 	-2.1211766e-33 	6.6666667e-16 	0 	6.6666667e-16
0.80266082 	6.6666667e-16 	2.3622345e-32 	1.4556025e-34 	6.6666667e-16 	0 	6.6666667e-16
0.82062374 	6.6666667e-16 	3.0232273e-32 	1.0014712e-33 	6.6666667e-16 	0 	6.6666667e-16
0.83946035 	6.6666667e-16 	-2.7810871e-32 	6.4761976e-34 	6.6666667e-16 	0 	6.6666667e-16
0.85921273 	6.6666667e-16 	-9.681577e-34 	2.882558e-34 	6.6666667e-16 	0 	6.6666667e-16
0.87992493 	6.6666667e-16 	1.9062252e-32 	-1.0647671e-33 	6.6666667e-16 	0 	6.6666667e-16
0.90164306 	6.6666667e-16 	-3.1854351e-32 	-1.0664056e-33 	6.6666667e-16 	0 	6.6666667e-16
0.92441544 	6.6666667e-16 	-8.2361256e-33 	2.2935116e-34 	6.6666667e-16 	0 	6.6666667e-16
0.94829262 	6.6666667e-16 	3.6198852e-32 	1.1939095e-33 	6.6666667e-16 	0 	6.6666667e-16
0.97332754 	6.6666667e-16 	3.5059373e-32 	4.7491632e-36 	6.6666667e-16 	0 	6.6666667e-16
0.99957561 	6.6666667e-16 	1.6991972e-34 	-3.9666664e-34 	6.6666667e-16 	0 	6.6666667e-16
1.0270948 	6.6666667e-16 	1.0839312e-32 	-6.8014002e-34 	6.6666667e-16 	0 	6.6666667e-16
1.0559459 	6.6666667e-16 	2.0506009e-32 	1.480304e-35 	6.6666667e-16 	0 	6.6666667e-16
1.0861923 	6.6666667e-16 	-2.605969e-32 	1.1536955e-33 	6.6666667e-16 	0 	6.6666667e-16
1.1179006 	6.6666667e-16 	-1.675684e-32 	8.0542808e-34 	6.6666667e-16 	0 	6.6666667e-16
1.1511403 	6.6666667e-16 	1.4118027e-32 	-2.2235026e-34 	6.6666667e-16 	0 	6.6666667e-16
1.1859841 	6.6666667e-16 	-5.847022e-33 	-1.0187479e-33 	6.6666667e-16 	0 	6.6666667e-16
1.2225081 	6.6666667e-16 	-2.2633339e-32 	-6.5001415e-34 	6.6666667e-16 	0 	6.6666667e-16
1.260792 	6.6666667e-16 	-3.7844798e-33 	2.78277e-34 	6.6666667e-16 	0 	6.6666667e-16
1.3009191 	6.6666667e-16 	2.1557528e-32 	4.2924623e-34 	6.6666667e-16 	0 	6.6666667e-16
1.3429763 	6.6666667e-16 	1.25109e-32 	-7.0124677e-36 	6.6666667e-16 	0 	6.6666667e-16
1.3870548 	6.6666667e-16 	-1.467309e-32 	1.6710189e-34 	6.6666667e-16 	0 	6.6666667e-16
1.4332497 	6.6666667e-16 	-1.3840754e-32 	1.5196076e-34 	6.6666667e-16 	0 	6.6666667e-16
1.4816606 	6.6666667e-16 	1.6326511e-32 	-2.454699e-36 	6.6666667e-16 	0 	6.6666667e-16
1.5323915 	6.6666667e-16 	1.9870726e-32 	-3.0942057e-34 	6.6666667e-16 	0 	6.6666667e-16
1.5855511 	6.6666667e-16 	-9.9429329e-33 	-3.1326747e-34 	6.6666667e-16 	0 	6.6666667e-16
1.641253 	6.6666667e-16 	1.3807502e-34 	8.8652026e-35 	6.6666667e-16 	0 	6.6666667e-16
1.6996161 	6.6666667e-16 	-4.7694482e-34 	2.5779417e-36 	6.6666667e-16 	0 	6.6666667e-16
1.7201581 	6.6666667e-16 	-3.0839639e-33 	1.5459556e-35 	6.6666667e-16 	0 	6.6666667e-16
1.760768 	6.6666667e-16 	-8.4801541e-33 	3.8089626e-35 	6.6666667e-16 	0 	6.6666667e-16
1.8212236 	6.6666667e-16 	-5.3789285e-34 	2.8052393e-34 	6.6666667e-16 	0 	6.6666667e-16
1.8787998 	6.6666667e-16 	7.6761024e-33 	2.205872e-35 	6.6666667e-16 	0 	6.6666667e-16
1.933638 	6.6666667e-16 	7.6715209e-33 	-2.8170382e-34 	6.6666667e-16 	0 	6.6666667e-16
1.9858719 	6.6666667e-16 	-1.8298809e-33 	5.130009e-35 	6.6666667e-16 	0 	6.6666667e-16
2.0356286 	6.6666667e-16 	-2.4761465e-34 	3.5564217e-34 	6.6666667e-16 	0 	6.6666667e-16
2.0830283 	6.6666667e-16 	-1.2821605e-33 	2.7116062e-34 	6.6666667e-16 	0 	6.6666667e-16
2.1281853 	6.6666667e-16 	-1.1422201e-32 	1.4246893e-34 	6.6666667e-16 	0 	6.6666667e-16
2.171208 	6.6666667e-16 	-2.4066554e-32 	-2.0587813e-34 	6.6666667e-16 	0 	6.6666667e-16
2.2121995 	6.6666667e-16 	-1.7173478e-32 	-3.0069104e-34 	6.6666667e-16 	0 	6.6666667e-16
2.2512573 	6.6666667e-16 	-1.9094329e-32 	-8.0936631e-35 	6.6666667e-16 	0 	6.6666667e-16
2.2884745 	6.6666667e-16 	-5.5472371e-33 	-9.1506134e-35 	6.6666667e-16 	0 	6.6666667e-16
2.3239391 	6.6666667e-16 	1.4027055e-32 	-3.4886854e-35 	6.6666667e-16 	0 	6.6666667e-16
2.3577352 	6.6666667e-16 	-7.790763e-33 	-4.6276238e-36 	6.6666667e-16 	0 	6.6666667e-16
2.3899424 	6.6666667e-16 	-2.437906e-32 	-1.1090301e-34 	6.6666667e-16 	0 	6.6666667e-16
2.4206365 	6.6666667e-16 	1.7665131e-32 	3.3575995e-36 	6.6666667e-16 	0 	6.6666667e-16
2.4498895 	6.6666667e-16 	1.6057242e-32 	4.8993136e-35 	6.6666667e-16 	0 	6.6666667e-16
2.47777 	6.6666667e-16 	-6.5549981e-33 	-9.0155312e-35 	6.6666667e-16 	0 	6.6666667e-16
2.5043432 	6.6666667e-16 	3.8190417e-32 	-2.0465185e-34 	6.6666667e-16 	0 	6.6666667e-16
2.529671 	6.6666667e-16 	-6.9407091e-33 	6.4406006e-35 	6.6666667e-16 	0 	6.6666667e-16
2.5538125 	6.6666667e-16 	-2.6994903e-32 	2.3740202e-34 	6.6666667e-16 	0 	6.6666667e-16
2.5768238 	6.6666667e-16 	1.4698175e-32 	2.367539e-34 	6.6666667e-16 	0 	6.6666667e-16
2.5987583 	6.6666667e-16 	-5.5936964e-32 	1.119598e-34 	6.6666667e-16 	0 	6.6666667e-16
2.6196669 	6.6666667e-16 	-2.1356246e-32 	-3.9057391e-34 	6.6666667e-16 	0 	6.6666667e-16
2.6395981 	6.6666667e-16 	4.2013075e-32 	-1.8809908e-35 	6.6666667e-16 	0 	6.6666667e-16
2.6585978 	6.6666667e-16 	-1.2531341e-32 	9.332015e-35 	6.6666667e-16 	0 	6.6666667e-16
2.6767099 	6.6666667e-16 	-3.4357315e-32 	-5.2780504e-35 	6.6666667e-16 	0 	6.6666667e-16
2.6939763 	6.6666667e-16 	9.6834377e-34 	1.0216409e-34 	6.6666667e-16 	0 	6.6666667e-16
2.7104366 	6.6666667e-16 	-7.9383509e-33 	-6.9841937e-35 	6.6666667e-16 	0 	6.6666667e-16
2.7261289 	6.6666667e-16 	-4.901851e-32 	-1.588404e-34 	6.6666667e-16 	0 	6.6666667e-16
2.741089 	6.6666667e-16 	7.9001131e-33 	9.433172e-36 	6.6666667e-16 	0 	6.6666667e-16
2.7553515 	6.6666667e-16 	2.7359996e-32 	2.5344221e-35 	6.6666667e-16 	0 	6.6666667e-16
2.7689491 	6.6666667e-16 	6.9927347e-33 	8.8012496e-36 	6.6666667e-16 	0 	6.6666667e-16
2.7819128 	6.6666667e-16 	-6.4400501e-32 	2.8488323e-34 	6.6666667e-16 	0 	6.6666667e-16
2.7942724 	6.6666667e-16 	3.4251692e-33 	-1.6082995e-34 	6.6666667e-16 	0 	6.6666667e-16
2.8060562 	6.6666667e-16 	3.9040909e-32 	1.5299356e-35 	6.6666667e-16 	0 	6.6666667e-16
2.8172912 	6.6666667e-16 	-3.6495398e-32 	1.3843326e-34 	6.6666667e-16 	0 	6.6666667e-16
2.828003 	6.6666667e-16 	8.726596e-32 	-1.4846898e-34 	6.6666667e-16 	0 	6.6666667e-16
2.838216 	6.6666667e-16 	4.5352716e-32 	-1.454063e-34 	6.6666667e-16 	0 	6.6666667e-16
2.8479537 	6.6666667e-16 	-4.258009e-32 	9.943893e-36 	6.6666667e-16 	0 	6.6666667e-16
2.8572382 	6.6666667e-16 	4.7697873e-32 	2.9815159e-34 	6.6666667e-16 	0 	6.6666667e-16
2.8660907 	6.6666667e-16 	-8.4549994e-33 	-5.3614192e-36 	6.6666667e-16 	0 	6.6666667e-16
2.8745313 	6.6666667e-16 	-6.3210088e-32 	-3.4424503e-34 	6.6666667e-16 	0 	6.6666667e-16
2.8825793 	6.6666667e-16 	4.3018552e-32 	4.4803174e-36 	6.6666667e-16 	0 	6.6666667e-16
2.890253 	6.6666667e-16 	6.2661804e-32 	2.2388693e-34 	6.6666667e-16 	0 	6.6666667e-16
2.8975698 	6.6666667e-16 	6.7629687e-32 	2.4068258e-36 	6.6666667e-16 	0 	6.6666667e-16
2.9045464 	6.6666667e-16 	6.2999891e-32 	8.7808168e-36 	6.6666667e-16 	0 	6.6666667e-16
2.9111988 	6.6666667e-16 	-7.5245999e-32 	1.3645561e-34 	6.6666667e-16 	0 	6.6666667e-16
2.9175418 	6.6666667e-16 	-1.6864813e-33 	1.3707718e-34 	6.6666667e-16 	0 	6.6666667e-16
2.9235901 	6.6666667e-16 	1.6182759e-31 	-1.6638503e-34 	6.6666667e-16 	0 	6.6666667e-16
2.9293573 	6.6666667e-16 	8.1335976e-32 	-1.5122128e-34 	6.6666667e-16 	0 	6.6666667e-16
2.9348565 	6.6666667e-16 	8.9486103e-32 	8.0805681e-36 	6.6666667e-16 	0 	6.6666667e-16
2.9401002 	6.6666667e-16 	-4.3636222e-33 	9.0520647e-35 	6.6666667e-16 	0 	6.6666667e-16
2.9451003 	6.6666667e-16 	4.5744029e-33 	-6.1059501e-36 	6.6666667e-16 	0 	6.6666667e-16
2.9498681 	6.6666667e-16 	9.3203272e-32 	-1.3619814e-36 	6.6666667e-16 	0 	6.6666667e-16
2.9544144 	6.6666667e-16 	-2.1968174e-31 	2.1522468e-34 	6.6666667e-16 	0 	6.6666667e-16
2.9587496 	6.6666667e-16 	1.6532592e-32 	9.1168198e-37 	6.6666667e-16 	0 	6.6666667e-16
2.9628835 	6.6666667e-16 	1.0898179e-31 	-3.5457284e-34 	6.6666667e-16 	0 	6.6666667e-16
2.9668253 	6.6666667e-16 	-1.6258554e-34 	-1.0924512e-34 	6.6666667e-16 	0 	6.6666667e-16
2.9705842 	6.6666667e-16 	1.1577046e-31 	2.524564e-34 	6.6666667e-16 	0 	6.6666667e-16
2.9741685 	6.6666667e-16 	2.7400116e-34 	-7.0316648e-36 	6.6666667e-16 	0 	6.6666667e-16
2.9775863 	6.6666667e-16 	-1.3952455e-31 	-2.7111984e-34 	6.6666667e-16 	0 	6.6666667e-16
2.9808456 	6.6666667e-16 	-2.9931259e-31 	1.5322387e-34 	6.6666667e-16 	0 	6.6666667e-16
2.9839535 	6.6666667e-16 	1.7206489e-33 	1.3449845e-34 	6.6666667e-16 	0 	6.6666667e-16
2.9869171 	6.6666667e-16 	1.5614772e-31 	-1.5703849e-34 	6.6666667e-16 	0 	6.6666667e-16
2.9897432 	6.6666667e-16 	5.6346117e-33 	3.9108206e-36 	6.6666667e-16 	0 	6.6666667e-16
2.992438 	6.6666667e-16 	5.3046505e-33 	1.3791861e-36 	6.6666667e-16 	0 	6.6666667e-16
2.9950079 	6.6666667e-16 	-2.9680195e-33 	-8.0808137e-37 	6.6666667e-16 	0 	6.6666667e-16
2.9974584 	6.6666667e-16 	6.3397423e-35 	3.4717245e-36 	6.6666667e-16 	0 	6.6666667e-16
2.9997952 	6.6666667e-16 	-2.0416162e-31 	1.0969235e-34 	6.6666667e-16 	0 	6.6666667e-16
3.0020236 	6.6666667e-16 	-4.2694986e-31 	-1.1854539e-34 	6.6666667e-16 	0 	6.6666667e-16
3.0041486 	6.6666667e-16 	-2.202428e-31 	-2.23085e-34 	6.6666667e-16 	0 	6.6666667e-16
3.0061749 	6.6666667e-16 	2.4432802e-31 	1.1821275e-34 	6.6666667e-16 	0 	6.6666667e-16
3.0081073 	6.6666667e-16 	2.4436534e-31 	-7.8467213e-36 	6.6666667e-16 	0 	6.6666667e-16
3.0099499 	6.6666667e-16 	-2.6734593e-31 	6.1765083e-36 	6.6666667e-16 	0 	6.6666667e-16
3.0117071 	6.6666667e-16 	1.774507e-32 	2.0539494e-34 	6.6666667e-16 	0 	6.6666667e-16
3.0133827 	6.6666667e-16 	-1.4554617e-32 	-1.3775828e-36 	6.6666667e-16 	0 	6.6666667e-16
3.0149807 	6.6666667e-16 	1.449888e-32 	-7.3853424e-35 	6.6666667e-16 	0 	6.6666667e-16
3.0165044 	6.6666667e-16 	3.1385181e-31 	-8.0520746e-35 	6.6666667e-16 	0 	6.6666667e-16
3.0179575 	6.6666667e-16 	9.5769924e-35 	4.5477711e-36 	6.6666667e-16 	0 	6.6666667e-16
3.0193432 	6.6666667e-16 	8.0414897e-33 	1.7452228e-34 	6.6666667e-16 	0 	6.6666667e-16
3.0206646 	6.6666667e-16 	-3.7168908e-31 	-5.3536794e-36 	6.6666667e-16 	0 	6.6666667e-16
3.0219246 	6.6666667e-16 	-7.7190643e-31 	-9.5589883e-35 	6.6666667e-16 	0 	6.6666667e-16
3.0231263 	6.6666667e-16 	4.2709569e-31 	-5.1117497e-35 	6.6666667e-16 	0 	6.6666667e-16
3.0242722 	6.6666667e-16 	8.1858319e-31 	4.7348397e-36 	6.6666667e-16 	0 	6.6666667e-16
3.0253649 	6.6666667e-16 	1.5092926e-34 	5.4673571e-35 	6.6666667e-16 	0 	6.6666667e-16
3.026407 	6.6666667e-16 	6.2644773e-33 	-8.3679984e-37 	6.6666667e-16 	0 	6.6666667e-16
3.0274007 	6.6666667e-16 	6.8963791e-34 	1.3462043e-38 	6.6666667e-16 	0 	6.6666667e-16
3.0283483 	6.6666667e-16 	5.2346098e-31 	-1.1062071e-37 	6.6666667e-16 	0 	6.6666667e-16
3.029252 	6.6666667e-16 	5.3371754e-31 	-2.4499828e-37 	6.6666667e-16 	0 	6.6666667e-16
3.0301137 	6.6666667e-16 	1.1577086e-30 	3.6738482e-35 	6.6666667e-16 	0 	6.6666667e-16
3.0309355 	6.6666667e-16 	-5.5909086e-32 	3.6489838e-35 	6.6666667e-16 	0 	6.6666667e-16
3.0317192 	6.6666667e-16 	-1.2076313e-30 	-3.9619561e-35 	6.6666667e-16 	0 	6.6666667e-16
3.0324665 	6.6666667e-16 	-6.6874345e-31 	-4.0531136e-35 	6.6666667e-16 	0 	6.6666667e-16
3.0331792 	6.6666667e-16 	-6.6903488e-31 	2.1342048e-35 	6.6666667e-16 	0 	6.6666667e-16
3.0338588 	6.6666667e-16 	8.9472867e-33 	-3.7254515e-37 	6.6666667e-16 	0 	6.6666667e-16
3.0345069 	6.6666667e-16 	7.8196261e-31 	-2.271186e-35 	6.6666667e-16 	0 	6.6666667e-16
3.0351249 	6.6666667e-16 	1.5499981e-16 	-7.7918728e-38 	6.6666667e-16 	0 	6.6666667e-16
3.0357143 	0 	0 	0 	0 	0 	0
