/*--------------------------------*- C++ -*----------------------------------*\
| =========                 |                                                 |
| \\      /  F ield         | OpenFOAM: The Open Source CFD Toolbox           |
|  \\    /   O peration     | Version:  2.4.0                                 |
|   \\  /    A nd           | Web:      www.OpenFOAM.org                      |
|    \\/     M anipulation  |                                                 |
\*---------------------------------------------------------------------------*/
FoamFile
{
    version     2.0;
    format      ascii;
    class       volScalarField;
    location    "30";
    object      p;
}
// * * * * * * * * * * * * * * * * * * * * * * * * * * * * * * * * * * * * * //

dimensions      [0 2 -2 0 0 0 0];

internalField   nonuniform List<scalar> 
19698
(
2.5967391e-07
0.0033425416
0.0067310039
0.009418038
0.010019628
0.0097749596
0.0080424518
0.0061010745
0.0043834749
0.0023060205
-0.00017713491
-0.0032281793
-0.0069378447
-0.011122352
-0.015596138
-0.020332407
-0.025195437
-0.030151028
-0.034992244
-0.039869485
-0.044479276
-0.049390834
-0.053938656
-0.061109128
-0.066013767
-0.068188366
-0.0678519
-0.065972178
-0.063333432
-0.060875625
-0.059056666
-0.057909181
-0.057082195
-0.056840454
-0.057825968
-0.059531085
-0.06005299
-0.057533719
-0.052463731
-0.046994113
-0.04286103
-0.04087354
-0.040814831
-0.042120163
-0.04399663
-0.045901337
-0.047530377
-0.048845422
-0.049927174
-0.050937659
-0.052039947
-0.053359354
-0.05496723
-0.056903874
-0.059236216
-0.062050351
-0.065471708
-0.069599068
-0.074656992
-0.080983725
-0.088679043
-0.097590706
-0.10737534
-0.11758943
-0.12780021
-0.13767225
-0.14699221
-0.1556305
-0.16352147
-0.17063861
-0.17698544
-0.18258028
-0.18745095
-0.19163051
-0.19515045
-0.19804383
-0.20033878
-0.20206221
-0.20323652
-0.20388139
-0.20401721
-0.20366287
-0.20283662
-0.20155479
-0.19983442
-0.19769158
-0.19514199
-0.19220024
-0.18888111
-0.18519893
-0.18116724
-0.17679988
-0.17211025
-0.16711229
-0.16181822
-0.15624153
-0.15039348
-0.14428637
-0.13793007
-0.13133598
-0.12451358
-0.11747451
-0.11022822
-0.1027861
-0.095158648
-0.087356884
-0.079394064
-0.071282061
-0.063032571
-0.054656653
-0.046163528
-0.0375665
-0.028874501
-0.020101517
-0.011257035
-0.002355892
0.006591303
0.015569885
0.024567748
0.033570532
0.042564521
0.051536065
-2.0971446e-05
0.0033140484
0.0067075012
0.0093985418
0.010009082
0.0097695363
0.0080411933
0.0061039565
0.0043880597
0.0023125919
-0.00016825705
-0.003216976
-0.0069251847
-0.0111094
-0.015583505
-0.020320734
-0.025185058
-0.030142582
-0.03498572
-0.039865523
-0.044477579
-0.0493926
-0.053944103
-0.061111921
-0.066010251
-0.068181322
-0.06784281
-0.065962889
-0.063325501
-0.060870143
-0.059053573
-0.057908065
-0.057082723
-0.056841463
-0.057825109
-0.059527038
-0.060047294
-0.057529867
-0.052464153
-0.046998213
-0.04286655
-0.040878818
-0.040819156
-0.042123024
-0.043998056
-0.045901764
-0.047530384
-0.048845497
-0.049927611
-0.050938519
-0.052041144
-0.05336077
-0.054968784
-0.056905535
-0.059237969
-0.06205215
-0.065473482
-0.069600859
-0.074658704
-0.08098502
-0.088679572
-0.097590417
-0.10737435
-0.11758798
-0.12779849
-0.13767039
-0.14699025
-0.15562852
-0.16351947
-0.17063667
-0.1769835
-0.1825784
-0.1874491
-0.19162871
-0.19514867
-0.19804209
-0.20033707
-0.20206052
-0.20323486
-0.20387976
-0.20401562
-0.20366133
-0.20283514
-0.20155337
-0.19983306
-0.1976903
-0.19514078
-0.19219912
-0.18888009
-0.18519799
-0.18116641
-0.17679916
-0.17210963
-0.16711178
-0.16181785
-0.15624127
-0.15039335
-0.14428635
-0.1379302
-0.13133623
-0.12451398
-0.11747504
-0.11022891
-0.10278693
-0.095159631
-0.087358032
-0.079395351
-0.071283509
-0.063034173
-0.054658405
-0.046165443
-0.037568556
-0.028876724
-0.02010388
-0.011259563
-0.0023585606
0.0065884766
0.015566918
0.024564635
0.033567276
0.042561135
0.051532544
-4.1499337e-05
0.0032811459
0.0066805645
0.0093753446
0.0099977606
0.0097643338
0.0080404917
0.0061078654
0.0043929889
0.0023192461
-0.00015917152
-0.0032051857
-0.0069117671
-0.011095764
-0.015570296
-0.020308615
-0.025174357
-0.030133976
-0.03497917
-0.039861741
-0.044476224
-0.049395028
-0.053950323
-0.06111522
-0.066006501
-0.068173583
-0.067832697
-0.06595246
-0.063316501
-0.060863851
-0.059049984
-0.057906758
-0.057083249
-0.05684246
-0.057824021
-0.059522546
-0.060041205
-0.057525916
-0.052464847
-0.047002879
-0.042872701
-0.040884645
-0.040823931
-0.042126187
-0.043999639
-0.04590224
-0.04753039
-0.048845571
-0.049928076
-0.050939449
-0.052042441
-0.053362302
-0.054970463
-0.056907317
-0.059239835
-0.062054042
-0.065475309
-0.069602652
-0.074660341
-0.080986172
-0.088679848
-0.09758979
-0.10737296
-0.11758612
-0.12779635
-0.13766815
-0.14698791
-0.15562621
-0.16351716
-0.17063443
-0.17698129
-0.18257627
-0.18744701
-0.19162669
-0.19514668
-0.19804016
-0.20033518
-0.20205866
-0.20323305
-0.20387797
-0.20401388
-0.20365964
-0.20283352
-0.20155181
-0.19983158
-0.1976889
-0.19513948
-0.19219791
-0.18887898
-0.18519699
-0.18116553
-0.17679838
-0.17210899
-0.16711125
-0.16181747
-0.15624101
-0.15039324
-0.14428636
-0.13793037
-0.13133652
-0.12451443
-0.11747564
-0.11022967
-0.10278786
-0.095160722
-0.087359308
-0.079396774
-0.071285112
-0.063035943
-0.054660338
-0.046167557
-0.037570816
-0.028879171
-0.020106472
-0.011262341
-0.0023614864
0.006585375
0.015563664
0.024561224
0.033563705
0.042557427
0.051528684
-5.9053019e-05
0.0032458494
0.0066520501
0.0093498173
0.0099868805
0.0097600586
0.008040631
0.0061130385
0.0043981874
0.002325623
-0.0001504672
-0.0031935579
-0.0068984552
-0.01108239
-0.01555752
-0.020297051
-0.025164322
-0.030126112
-0.034973424
-0.0398588
-0.04447576
-0.049398289
-0.053957168
-0.06111915
-0.06600338
-0.068166343
-0.06782291
-0.065942145
-0.063307424
-0.06085738
-0.059046231
-0.057905345
-0.057083631
-0.056843241
-0.057822843
-0.059518314
-0.060035685
-0.057522446
-0.052465628
-0.047007322
-0.042878513
-0.040890151
-0.040828509
-0.042129274
-0.044001243
-0.045902771
-0.047530452
-0.048845675
-0.049928539
-0.050940346
-0.052043685
-0.05336377
-0.054972068
-0.05690901
-0.059241592
-0.062055803
-0.065476974
-0.069604234
-0.074661697
-0.080987039
-0.088679865
-0.097588971
-0.10737145
-0.11758421
-0.12779424
-0.13766597
-0.14698566
-0.15562401
-0.16351495
-0.17063233
-0.1769792
-0.18257428
-0.18744505
-0.19162481
-0.19514483
-0.19803836
-0.20033343
-0.20205692
-0.20323135
-0.20387628
-0.20401224
-0.20365804
-0.20283199
-0.20155035
-0.19983019
-0.1976876
-0.19513827
-0.19219679
-0.18887796
-0.18519607
-0.18116473
-0.17679768
-0.17210841
-0.16711078
-0.16181716
-0.1562408
-0.15039318
-0.1442864
-0.13793058
-0.13133684
-0.12451492
-0.11747626
-0.11023047
-0.10278882
-0.095161838
-0.087360617
-0.079398221
-0.071286741
-0.063037736
-0.054662288
-0.046169693
-0.037573084
-0.028881631
-0.020109067
-0.011265126
-0.0023644098
0.0065822727
0.015560417
0.024557818
0.03356014
0.04255373
0.051524832
-7.5807942e-05
0.0032078928
0.0066218255
0.0093219817
0.0099760986
0.0097563341
0.0080413155
0.0061192328
0.0044037332
0.0023320626
-0.00014168639
-0.003181666
-0.0068848448
-0.011068874
-0.015544802
-0.020285751
-0.025154764
-0.030118932
-0.034968556
-0.039856908
-0.044476519
-0.049402835
-0.053965261
-0.061124026
-0.066000913
-0.068159498
-0.067813266
-0.065931738
-0.063298085
-0.060850597
-0.059042236
-0.057903804
-0.057083875
-0.056843794
-0.057821514
-0.059514259
-0.060030674
-0.05751945
-0.052466559
-0.047011637
-0.042884075
-0.040895421
-0.040832963
-0.042132341
-0.044002906
-0.045903381
-0.04753059
-0.048845832
-0.049929028
-0.050941245
-0.052044917
-0.053365216
-0.054973645
-0.056910663
-0.059243289
-0.062057482
-0.065478525
-0.069605652
-0.074662814
-0.080987642
-0.08867963
-0.097587963
-0.10736983
-0.11758228
-0.12779216
-0.13766388
-0.1469835
-0.15562193
-0.16351287
-0.17063036
-0.17697723
-0.18257241
-0.18744321
-0.19162305
-0.19514309
-0.19803667
-0.20033177
-0.20205527
-0.20322974
-0.20387467
-0.20401067
-0.20365651
-0.20283053
-0.20154896
-0.19982886
-0.19768635
-0.19513711
-0.19219572
-0.188877
-0.1851952
-0.18116398
-0.17679702
-0.17210789
-0.16711037
-0.1618169
-0.15624066
-0.15039319
-0.1442865
-0.13793086
-0.13133722
-0.12451548
-0.11747694
-0.11023132
-0.10278984
-0.095163025
-0.087362004
-0.079399746
-0.071288453
-0.063039617
-0.054664326
-0.046171923
-0.037575442
-0.028884189
-0.020111754
-0.011268014
-0.0023674325
0.0065790645
0.015557064
0.024554304
0.033556462
0.042549921
0.051520864
-9.2634688e-05
0.0031678308
0.0065903284
0.0092922476
0.0099652186
0.0097528806
0.0080422972
0.0061261536
0.0044095577
0.0023386139
-0.00013278754
-0.0031695707
-0.0068710556
-0.011055348
-0.015532301
-0.02027492
-0.025145941
-0.030112753
-0.034964939
-0.039856484
-0.044478952
-0.049409138
-0.053975099
-0.061130075
-0.065999172
-0.068153086
-0.067803787
-0.065921242
-0.063288479
-0.060843489
-0.059037994
-0.057902141
-0.057083985
-0.056844085
-0.05781998
-0.059510369
-0.060026234
-0.057517033
-0.052467747
-0.047015891
-0.042889408
-0.040900464
-0.040837291
-0.042135389
-0.044004627
-0.045904076
-0.047530809
-0.048846049
-0.049929552
-0.050942153
-0.052046141
-0.053366644
-0.054975199
-0.056912279
-0.059244927
-0.062059073
-0.065479954
-0.069606891
-0.074663666
-0.080987942
-0.088679102
-0.097586729
-0.10736806
-0.11758033
-0.12779013
-0.13766189
-0.14698145
-0.15561999
-0.16351092
-0.17062854
-0.17697539
-0.18257067
-0.18744149
-0.19162141
-0.19514146
-0.19803509
-0.20033022
-0.20205372
-0.20322822
-0.20387314
-0.20400918
-0.20365505
-0.20282914
-0.20154763
-0.19982759
-0.19768517
-0.19513602
-0.19219472
-0.1888761
-0.1851944
-0.1811633
-0.17679643
-0.17210743
-0.16711002
-0.16181672
-0.15624057
-0.15039326
-0.14428666
-0.1379312
-0.13133766
-0.1245161
-0.11747769
-0.11023225
-0.10279094
-0.095164294
-0.08736348
-0.07940136
-0.071290262
-0.063041598
-0.054666465
-0.046174261
-0.037577905
-0.02888686
-0.020114551
-0.01127102
-0.0023705714
0.0065757336
0.015553588
0.024550663
0.033552654
0.042545983
0.051516761
-0.00011006992
0.0031261658
0.0065578535
0.0092609879
0.0099540564
0.0097494662
0.0080433957
0.0061335556
0.0044156205
0.0023453034
-0.00012377538
-0.0031573678
-0.0068572389
-0.011041989
-0.015520232
-0.02026482
-0.025138175
-0.030107952
-0.034963007
-0.039858005
-0.044483566
-0.049417717
-0.053987217
-0.061137562
-0.065998289
-0.068147214
-0.067794566
-0.065910728
-0.063278647
-0.060836074
-0.059033508
-0.057900364
-0.057083954
-0.056844075
-0.057818199
-0.059506669
-0.060022472
-0.057515321
-0.052469285
-0.047020123
-0.042894505
-0.040905267
-0.040841478
-0.042138408
-0.044006407
-0.045904863
-0.04753112
-0.048846336
-0.049930115
-0.05094307
-0.052047354
-0.05336805
-0.054976723
-0.05691385
-0.059246495
-0.062060562
-0.065481245
-0.069607925
-0.074664221
-0.080987898
-0.088678245
-0.097585246
-0.10736615
-0.11757836
-0.12778818
-0.13766002
-0.14697955
-0.15561822
-0.16350914
-0.17062689
-0.17697372
-0.1825691
-0.18743993
-0.19161992
-0.19513997
-0.19803363
-0.2003288
-0.20205228
-0.2032268
-0.2038717
-0.20400777
-0.20365368
-0.20282783
-0.20154637
-0.1998264
-0.19768407
-0.195135
-0.1921938
-0.18887527
-0.18519366
-0.18116268
-0.17679592
-0.17210705
-0.16710974
-0.16181661
-0.15624056
-0.15039341
-0.1442869
-0.13793161
-0.13133817
-0.12451679
-0.11747851
-0.11023327
-0.10279213
-0.095165652
-0.087365052
-0.079403073
-0.071292173
-0.063043687
-0.054668713
-0.046176715
-0.037580482
-0.02888965
-0.020117466
-0.01127415
-0.0023738338
0.0065722741
0.015549985
0.024546889
0.033548713
0.04254191
0.05151252
-0.00012852078
0.003083253
0.00652452
0.0092285049
0.0099424698
0.009745914
0.0080444878
0.0061412291
0.0044218875
0.0023521345
-0.00011467683
-0.0031451556
-0.0068435456
-0.011028982
-0.015508825
-0.020255737
-0.025131808
-0.03010494
-0.034963228
-0.039861987
-0.044490916
-0.049429141
-0.05400221
-0.061146791
-0.065998425
-0.068142014
-0.067785715
-0.065900279
-0.063268639
-0.06082837
-0.059028784
-0.057898478
-0.057083774
-0.056843725
-0.057816134
-0.0595032
-0.060019507
-0.057514441
-0.052471276
-0.047024381
-0.042899369
-0.040909833
-0.040845519
-0.042141401
-0.044008253
-0.045905754
-0.047531534
-0.048846701
-0.049930721
-0.050943995
-0.052048554
-0.053369431
-0.054978214
-0.056915371
-0.059247984
-0.062061935
-0.06548238
-0.06960873
-0.074664447
-0.080987471
-0.088677026
-0.097583496
-0.10736411
-0.11757642
-0.12778635
-0.13765831
-0.14697784
-0.15561665
-0.16350757
-0.17062545
-0.17697225
-0.18256771
-0.18743854
-0.19161859
-0.19513864
-0.19803233
-0.2003275
-0.20205097
-0.20322549
-0.20387037
-0.20400646
-0.2036524
-0.20282661
-0.20154521
-0.1998253
-0.19768305
-0.19513407
-0.19219296
-0.18887452
-0.18519301
-0.18116215
-0.17679548
-0.17210674
-0.16710955
-0.16181659
-0.15624064
-0.15039364
-0.14428722
-0.13793212
-0.13133877
-0.12451758
-0.11747942
-0.11023438
-0.10279341
-0.095167112
-0.087366727
-0.079404896
-0.071294197
-0.063045894
-0.05467108
-0.046179293
-0.037583183
-0.028892569
-0.02012051
-0.011277413
-0.0023772297
0.0065686775
0.015546244
0.024542975
0.033544629
0.042537695
0.051508133
-0.0001483193
0.0030393331
0.0064903498
0.0091950462
0.0099303562
0.0097420907
0.0080454813
0.0061489864
0.0044283069
0.0023590803
-0.00010554757
-0.0031330469
-0.0068301374
-0.011016531
-0.015498334
-0.020247986
-0.025127223
-0.030104167
-0.034966116
-0.039868996
-0.044501607
-0.049444034
-0.054020736
-0.06115811
-0.065999766
-0.068137639
-0.067777369
-0.065889996
-0.063258513
-0.060820398
-0.059023825
-0.05789649
-0.057083435
-0.056842998
-0.05781375
-0.059500009
-0.060017462
-0.057514526
-0.052473829
-0.04702873
-0.042904019
-0.040914185
-0.040849425
-0.042144379
-0.044010179
-0.045906763
-0.047532062
-0.048847151
-0.049931371
-0.050944926
-0.052049737
-0.053370781
-0.054979666
-0.056916836
-0.059249385
-0.062063181
-0.065483343
-0.069609284
-0.074664314
-0.080986627
-0.08867542
-0.097581468
-0.10736193
-0.11757454
-0.12778468
-0.1376568
-0.14697636
-0.15561534
-0.16350626
-0.17062425
-0.17697102
-0.18256654
-0.18743736
-0.19161744
-0.19513748
-0.19803118
-0.20032636
-0.2020498
-0.20322431
-0.20386916
-0.20400526
-0.20365123
-0.20282549
-0.20154415
-0.1998243
-0.19768213
-0.19513323
-0.19219221
-0.18887387
-0.18519245
-0.18116171
-0.17679513
-0.17210653
-0.16710944
-0.16181665
-0.1562408
-0.15039396
-0.14428764
-0.13793271
-0.13133947
-0.12451847
-0.11748044
-0.11023559
-0.1027948
-0.095168684
-0.087368516
-0.07940684
-0.071296345
-0.063048229
-0.054673576
-0.046182005
-0.03758602
-0.028895626
-0.020123693
-0.011280821
-0.0023807708
0.0065649331
0.015542354
0.024538908
0.033540393
0.042533327
0.051503592
-0.00016973822
0.0029945626
0.0064553117
0.0091607979
0.0099176318
0.009737884
0.0080462916
0.006156651
0.0044348025
0.0023660755
-9.6479092e-05
-0.0031211789
-0.0068172015
-0.011004863
-0.015489048
-0.020241922
-0.025124842
-0.030106122
-0.034972226
-0.039879642
-0.044516293
-0.049463073
-0.054043513
-0.061171902
-0.066002526
-0.068134265
-0.067769685
-0.06588
-0.063248342
-0.060812186
-0.05901864
-0.057894401
-0.057082925
-0.056841851
-0.05781102
-0.059497155
-0.060016471
-0.057515713
-0.052477068
-0.047033256
-0.042908497
-0.04091837
-0.040853223
-0.042147366
-0.044012205
-0.045907909
-0.047532717
-0.048847691
-0.049932066
-0.05094586
-0.052050897
-0.053372097
-0.054981074
-0.056918238
-0.05925069
-0.062064285
-0.06548412
-0.069609561
-0.07466379
-0.080985331
-0.088673402
-0.097579152
-0.10735967
-0.11757276
-0.12778322
-0.13765554
-0.14697517
-0.15561431
-0.16350523
-0.17062332
-0.17697004
-0.1825656
-0.18743641
-0.1916165
-0.19513651
-0.19803021
-0.20032538
-0.20204877
-0.20322326
-0.20386808
-0.20400418
-0.20365017
-0.20282448
-0.2015432
-0.1998234
-0.19768132
-0.1951325
-0.19219156
-0.18887332
-0.18519199
-0.18116137
-0.17679489
-0.17210641
-0.16710944
-0.16181682
-0.15624108
-0.15039439
-0.14428816
-0.13793341
-0.13134028
-0.12451946
-0.11748157
-0.11023692
-0.10279631
-0.09517038
-0.087370431
-0.079408917
-0.071298628
-0.063050704
-0.054676214
-0.046184863
-0.037589006
-0.028898834
-0.02012703
-0.011284386
-0.0023844707
0.0065610284
0.015538304
0.024534678
0.033535993
0.042528794
0.051498885
-0.00019299061
0.0029490157
0.0064193307
0.0091258705
0.0099042027
0.0097331819
0.0080468212
0.0061640466
0.0044412657
0.002373013
-8.7606874e-05
-0.0031097259
-0.0068049555
-0.010994245
-0.015481288
-0.020237936
-0.025125126
-0.030111337
-0.034982154
-0.039894581
-0.044535678
-0.049486988
-0.054071315
-0.061188594
-0.066006947
-0.068132095
-0.067762843
-0.065870438
-0.063238217
-0.060803772
-0.059013239
-0.057892213
-0.057082228
-0.056840242
-0.057807919
-0.059494706
-0.060016675
-0.057518145
-0.052481133
-0.047038073
-0.042912873
-0.040922461
-0.040856959
-0.042150399
-0.04401436
-0.045909215
-0.047533511
-0.048848327
-0.049932804
-0.050946791
-0.052052029
-0.053373371
-0.054982431
-0.056919569
-0.059251888
-0.062065237
-0.065484692
-0.069609537
-0.074662844
-0.080983549
-0.088670947
-0.097576543
-0.10735734
-0.11757115
-0.12778201
-0.13765457
-0.14697429
-0.15561361
-0.16350454
-0.1706227
-0.17696936
-0.18256492
-0.1874357
-0.19161577
-0.19513574
-0.19802942
-0.20032457
-0.20204791
-0.20322236
-0.20386714
-0.20400323
-0.20364925
-0.20282359
-0.20154237
-0.19982262
-0.19768062
-0.19513188
-0.19219103
-0.18887287
-0.18519164
-0.18116114
-0.17679475
-0.17210641
-0.16710955
-0.16181709
-0.15624146
-0.15039492
-0.1442888
-0.13793423
-0.13134121
-0.12452058
-0.11748283
-0.11023838
-0.10279795
-0.095172214
-0.087372484
-0.079411142
-0.07130106
-0.063053333
-0.054679009
-0.046187881
-0.037592156
-0.028902207
-0.020130535
-0.011288121
-0.0023883445
0.0065569486
0.015534077
0.024530268
0.033531416
0.042524081
0.051493998
-0.0002182434
0.0029026856
0.0063822879
0.0090902862
0.0098899462
0.0097278512
0.0080469408
0.0061709826
0.0044475437
0.0023797314
-7.9124838e-05
-0.0030989104
-0.0067936634
-0.010984985
-0.01547542
-0.020236463
-0.025128579
-0.030120382
-0.03499654
-0.039914509
-0.044560507
-0.049516553
-0.05410497
-0.061208652
-0.0660133
-0.068131354
-0.067757052
-0.06586148
-0.063228248
-0.060795204
-0.059007637
-0.057889925
-0.057081329
-0.056838125
-0.057804428
-0.059492742
-0.060018218
-0.057521973
-0.052486182
-0.047043337
-0.042917259
-0.04092656
-0.040860705
-0.042153532
-0.044016686
-0.045910708
-0.047534461
-0.048849064
-0.049933579
-0.05094771
-0.052053125
-0.053374598
-0.054983731
-0.056920824
-0.059252972
-0.062066022
-0.065485043
-0.069609184
-0.07466144
-0.080981246
-0.088668034
-0.097573636
-0.10735502
-0.11756976
-0.12778107
-0.13765392
-0.14697377
-0.15561327
-0.1635042
-0.17062241
-0.17696899
-0.18256452
-0.18743524
-0.19161526
-0.19513519
-0.19802882
-0.20032393
-0.2020472
-0.2032216
-0.20386634
-0.20400241
-0.20364845
-0.20282283
-0.20154165
-0.19982196
-0.19768004
-0.19513137
-0.19219061
-0.18887255
-0.18519141
-0.18116102
-0.17679473
-0.17210652
-0.16710978
-0.16181749
-0.15624197
-0.15039558
-0.14428957
-0.13793518
-0.13134228
-0.12452183
-0.11748422
-0.11023999
-0.10279974
-0.095174202
-0.087374691
-0.079413531
-0.071303657
-0.063056132
-0.054681978
-0.046191076
-0.037595488
-0.028905763
-0.020134228
-0.011292044
-0.0023924102
0.0065526765
0.015529656
0.024525663
0.033526643
0.042519172
0.051488915
-0.00024564035
0.0028554848
0.0063440105
0.0090539617
0.0098746898
0.0097217171
0.0080464712
0.006177236
0.0044534246
0.0023859983
-7.1298054e-05
-0.0030890213
-0.0067836481
-0.010977445
-0.01547186
-0.020237983
-0.025135747
-0.030133868
-0.035016053
-0.039940156
-0.044591558
-0.049552582
-0.054145342
-0.061232582
-0.066021886
-0.068132295
-0.067752543
-0.065853325
-0.06321857
-0.060786544
-0.059001852
-0.057887534
-0.05708021
-0.056835456
-0.057800528
-0.059491348
-0.060021252
-0.057527349
-0.052492406
-0.047049256
-0.042921814
-0.040930814
-0.040864564
-0.042156836
-0.044019232
-0.045912422
-0.047535584
-0.048849903
-0.049934386
-0.050948609
-0.052054176
-0.05337577
-0.054984969
-0.056921994
-0.05925393
-0.062066627
-0.065485154
-0.069608477
-0.074659545
-0.080978385
-0.088664636
-0.097570429
-0.10735274
-0.11756867
-0.12778044
-0.13765364
-0.14697365
-0.15561332
-0.16350424
-0.17062247
-0.17696895
-0.18256441
-0.18743505
-0.19161499
-0.19513485
-0.19802841
-0.20032346
-0.20204666
-0.20322099
-0.20386568
-0.20400173
-0.20364779
-0.2028222
-0.20154107
-0.19982142
-0.19767958
-0.19513099
-0.19219032
-0.18887234
-0.18519131
-0.18116102
-0.17679484
-0.17210675
-0.16711014
-0.16181801
-0.15624262
-0.15039637
-0.14429048
-0.13793627
-0.13134351
-0.12452324
-0.11748578
-0.11024176
-0.10280169
-0.095176361
-0.087377071
-0.079416103
-0.071306439
-0.063059122
-0.054685141
-0.046194468
-0.037599023
-0.028909521
-0.020138129
-0.011296177
-0.0023966901
0.0065481905
0.015525019
0.024520839
0.033521654
0.042514045
0.051483615
-0.00027531174
0.0028072352
0.0063042635
0.0090166939
0.0098581883
0.0097145399
0.0080451624
0.0061825293
0.0044586175
0.0023914937
-6.4482232e-05
-0.0030804308
-0.0067753057
-0.010972058
-0.015471081
-0.020243025
-0.025147214
-0.030152436
-0.035041392
-0.039972276
-0.044629631
-0.04959591
-0.054193323
-0.061260925
-0.066033043
-0.0681352
-0.067749581
-0.065846202
-0.063209339
-0.060777869
-0.058995908
-0.057885036
-0.057078853
-0.056832188
-0.057796206
-0.059490619
-0.060025924
-0.057534443
-0.052500033
-0.047056102
-0.042926762
-0.040935419
-0.040868673
-0.04216041
-0.044022065
-0.045914399
-0.047536899
-0.048850849
-0.049935218
-0.050949476
-0.052055173
-0.053376881
-0.054986135
-0.056923072
-0.059254754
-0.062067037
-0.065485006
-0.069607386
-0.074657119
-0.080974923
-0.088660719
-0.097566949
-0.10735056
-0.1175679
-0.12778016
-0.13765375
-0.14697396
-0.15561379
-0.16350469
-0.17062289
-0.17696925
-0.1825646
-0.18743514
-0.19161496
-0.19513473
-0.1980282
-0.20032318
-0.20204629
-0.20322053
-0.20386517
-0.20400118
-0.20364726
-0.20282169
-0.20154061
-0.19982102
-0.19767925
-0.19513074
-0.19219016
-0.18887227
-0.18519133
-0.18116116
-0.17679509
-0.17210713
-0.16711065
-0.16181869
-0.15624342
-0.15039731
-0.14429156
-0.13793753
-0.1313449
-0.12452482
-0.11748752
-0.11024371
-0.10280383
-0.095178715
-0.087379646
-0.079418881
-0.07130943
-0.063062326
-0.054688523
-0.046198081
-0.037602787
-0.028913509
-0.020142267
-0.011300546
-0.0024012113
0.0065434633
0.015520138
0.02451577
0.033516421
0.042508672
0.051478071
-0.00030740509
0.0027576648
0.0062627298
0.0089781418
0.0098401011
0.009705989
0.0080426724
0.006186508
0.0044627355
0.0023957907
-5.9138277e-05
-0.0030736077
-0.0067691211
-0.010969332
-0.01547362
-0.020252166
-0.025163601
-0.030176749
-0.035073266
-0.040011624
-0.044675527
-0.049647375
-0.054249803
-0.061294255
-0.066047147
-0.068140387
-0.067748461
-0.065840375
-0.063200744
-0.060769274
-0.058989838
-0.057882419
-0.05707724
-0.056828269
-0.057791451
-0.05949065
-0.060032382
-0.057543434
-0.05250934
-0.047064227
-0.042932402
-0.040940633
-0.040873221
-0.04216438
-0.044025268
-0.045916688
-0.047538431
-0.048851905
-0.049936065
-0.050950298
-0.052056104
-0.053377922
-0.054987224
-0.056924049
-0.059255432
-0.062067237
-0.065484578
-0.06960588
-0.074654116
-0.08097081
-0.088656242
-0.097563235
-0.10734853
-0.11756751
-0.12778025
-0.13765431
-0.14697474
-0.15561473
-0.16350559
-0.17062372
-0.17696992
-0.18256512
-0.18743552
-0.19161518
-0.19513485
-0.19802819
-0.20032308
-0.20204609
-0.20322023
-0.20386482
-0.20400079
-0.20364688
-0.20282133
-0.2015403
-0.19982076
-0.19767907
-0.19513063
-0.19219014
-0.18887235
-0.18519151
-0.18116145
-0.17679549
-0.17210767
-0.16711132
-0.16181952
-0.15624438
-0.15039843
-0.14429283
-0.13793897
-0.13134649
-0.12452659
-0.11748946
-0.11024586
-0.10280619
-0.095181288
-0.087382445
-0.079421893
-0.071312658
-0.063065773
-0.054692154
-0.046201947
-0.037606812
-0.028917757
-0.020146673
-0.011305184
-0.0024060071
0.0065384618
0.01551498
0.024510422
0.033510911
0.04250302
0.051472251
-0.00034209382
0.0027063962
0.0062189963
0.0089378072
0.0098199695
0.0096956202
0.0080385503
0.0061887222
0.0044652811
0.0023983455
-5.5839006e-05
-0.003069128
-0.0067656714
-0.010969857
-0.015480078
-0.020266027
-0.025185552
-0.030207478
-0.035112378
-0.040058948
-0.044730027
-0.049707795
-0.054315647
-0.06133317
-0.066064615
-0.068148211
-0.067749517
-0.065836143
-0.063193005
-0.060760878
-0.058983679
-0.057879672
-0.057075353
-0.056823648
-0.057786255
-0.059491541
-0.060040765
-0.05755451
-0.052520666
-0.047074073
-0.042939122
-0.040946787
-0.040878446
-0.04216891
-0.044028945
-0.04591935
-0.047540205
-0.048853074
-0.049936914
-0.05095106
-0.052056959
-0.053378885
-0.054988226
-0.056924915
-0.059255953
-0.06206721
-0.065483844
-0.069603918
-0.074650482
-0.080965979
-0.088651145
-0.097559351
-0.10734673
-0.1175675
-0.12778079
-0.13765538
-0.14697606
-0.15561618
-0.16350698
-0.17062499
-0.17697101
-0.182566
-0.18743623
-0.1916157
-0.19513522
-0.19802842
-0.2003232
-0.20204609
-0.20322011
-0.20386465
-0.20400057
-0.20364667
-0.20282114
-0.20154015
-0.19982066
-0.19767904
-0.19513069
-0.19219029
-0.18887259
-0.18519186
-0.18116192
-0.17679607
-0.17210838
-0.16711217
-0.16182054
-0.15624554
-0.15039974
-0.1442943
-0.13794062
-0.13134831
-0.12452859
-0.11749164
-0.11024826
-0.10280879
-0.095184113
-0.0873855
-0.079425173
-0.071316159
-0.0630695
-0.054696072
-0.046206103
-0.037611136
-0.028922306
-0.020151388
-0.011310131
-0.0024111191
0.0065331443
0.015509502
0.024504754
0.03350508
0.042497047
0.051466111
-0.00037959482
0.0026529451
0.0061725352
0.0088950279
0.0097972031
0.0096828607
0.0080322282
0.0061886183
0.0044656466
0.0023984993
-5.5266803e-05
-0.0030676669
-0.0067656219
-0.010974295
-0.015491113
-0.020285259
-0.02521372
-0.030245287
-0.03515941
-0.040114955
-0.044793871
-0.04977794
-0.054391665
-0.061378281
-0.066085905
-0.068159071
-0.067753129
-0.065833849
-0.063186382
-0.060752822
-0.05897748
-0.057876792
-0.057073158
-0.056818271
-0.057780612
-0.059493389
-0.060051201
-0.057567879
-0.052534422
-0.047086182
-0.04294741
-0.040954295
-0.040884652
-0.042174202
-0.044033224
-0.045922459
-0.047542257
-0.04885436
-0.049937755
-0.050951746
-0.052057725
-0.053379762
-0.054989132
-0.056925659
-0.059256302
-0.062066933
-0.06548277
-0.069601455
-0.07464615
-0.08096035
-0.088645362
-0.097555359
-0.10734532
-0.11756792
-0.12778188
-0.13765706
-0.14697802
-0.15561826
-0.16350897
-0.17062681
-0.1769726
-0.18256731
-0.18743734
-0.19161655
-0.19513591
-0.19802893
-0.20032357
-0.20204633
-0.20322021
-0.20386468
-0.20400054
-0.20364666
-0.20282113
-0.20154019
-0.19982075
-0.19767921
-0.19513093
-0.19219063
-0.18887303
-0.18519241
-0.18116258
-0.17679686
-0.1721093
-0.16711324
-0.16182177
-0.15624693
-0.15040129
-0.14429603
-0.13794252
-0.13135037
-0.12453084
-0.11749409
-0.11025093
-0.10281167
-0.09518723
-0.087388853
-0.079428763
-0.071319976
-0.063073549
-0.054700321
-0.046210595
-0.037615807
-0.028927204
-0.020156461
-0.011315439
-0.0024165985
0.006527459
0.015503651
0.024498711
0.033498877
0.042490699
0.0514596
-0.0004201729
0.0025967178
0.0061227063
0.0088489819
0.0097710848
0.0096670105
0.0080230313
0.0061855519
0.0044631332
0.0023955002
-5.8186773e-05
-0.0030699763
-0.0067697021
-0.01098336
-0.015507414
-0.020310527
-0.025248754
-0.030290815
-0.035215002
-0.040180301
-0.044867732
-0.04985851
-0.054478584
-0.0614302
-0.066111511
-0.068173409
-0.067759724
-0.065833888
-0.063181178
-0.060745277
-0.0589713
-0.057873779
-0.057070616
-0.056812086
-0.057774518
-0.059496286
-0.060063803
-0.057583766
-0.05255109
-0.047101189
-0.042957848
-0.040963656
-0.040892212
-0.042180507
-0.044038262
-0.045926103
-0.047544626
-0.04885577
-0.049938573
-0.050952338
-0.052058387
-0.05338054
-0.05498993
-0.056926266
-0.05925646
-0.062066378
-0.065481314
-0.069598427
-0.074641033
-0.08095382
-0.088638886
-0.097551305
-0.10734446
-0.11756887
-0.12778365
-0.13765952
-0.14698079
-0.15562112
-0.16351171
-0.1706293
-0.1769748
-0.18256917
-0.18743892
-0.19161783
-0.19513699
-0.19802978
-0.20032426
-0.20204686
-0.20322059
-0.20386497
-0.20400077
-0.20364688
-0.20282136
-0.20154045
-0.19982107
-0.19767961
-0.19513141
-0.1921912
-0.1888737
-0.18519319
-0.18116348
-0.17679789
-0.17211047
-0.16711456
-0.16182326
-0.15624858
-0.15040311
-0.14429803
-0.13794471
-0.13135274
-0.1245334
-0.11749685
-0.11025391
-0.10281488
-0.095190686
-0.087392553
-0.079432712
-0.071324161
-0.063077976
-0.054704958
-0.04621548
-0.037620882
-0.02893251
-0.020161953
-0.011321168
-0.0024225074
0.0065213421
0.015497364
0.024492231
0.033492234
0.042483911
0.05145265
-0.00046413567
0.0025370326
0.0060687667
0.0087987167
0.0097408003
0.0096472686
0.0080102107
0.0061788229
0.004456995
0.0023885531
-6.5402498e-05
-0.0030768391
-0.0067786659
-0.010997783
-0.015529677
-0.020342484
-0.025291272
-0.030344657
-0.035279734
-0.04025557
-0.044952201
-0.049950116
-0.05457703
-0.061489528
-0.066141957
-0.068191705
-0.06776978
-0.065836709
-0.06317775
-0.060738451
-0.058965212
-0.057870622
-0.057067694
-0.056805038
-0.05776797
-0.059500313
-0.060078667
-0.057602415
-0.052571207
-0.047119796
-0.042971106
-0.040975452
-0.040901568
-0.042188129
-0.044044246
-0.045930388
-0.047547361
-0.048857311
-0.049939355
-0.050952815
-0.052058929
-0.053381209
-0.054990605
-0.056926715
-0.059256397
-0.0620655
-0.065479417
-0.069594754
-0.074635021
-0.080946269
-0.088631786
-0.097547296
-0.10734433
-0.11757057
-0.12778636
-0.137663
-0.1469846
-0.15562498
-0.16351538
-0.17063264
-0.17697777
-0.18257171
-0.18744112
-0.19161965
-0.19513856
-0.1980311
-0.20032539
-0.2020478
-0.20322135
-0.20386564
-0.20400135
-0.20364745
-0.20282191
-0.20154104
-0.19982169
-0.19768031
-0.19513218
-0.19219207
-0.18887465
-0.18519426
-0.18116466
-0.1767992
-0.17211192
-0.16711618
-0.16182505
-0.15625054
-0.15040526
-0.14430037
-0.13794722
-0.13135545
-0.12453631
-0.11749997
-0.11025728
-0.10281848
-0.095194538
-0.087396659
-0.079437082
-0.071328777
-0.063082843
-0.054710047
-0.046220826
-0.037626431
-0.028938295
-0.020167937
-0.011327393
-0.0024289225
0.0065147158
0.01549056
0.024485232
0.033485071
0.042476601
0.05144518
-0.000511816
0.0024731529
0.0060099142