/*--------------------------------*- C++ -*----------------------------------*\
| =========                 |                                                 |
| \\      /  F ield         | OpenFOAM: The Open Source CFD Toolbox           |
|  \\    /   O peration     | Version:  2.4.0                                 |
|   \\  /    A nd           | Web:      www.OpenFOAM.org                      |
|    \\/     M anipulation  |                                                 |
\*---------------------------------------------------------------------------*/
FoamFile
{
    version     2.0;
    format      ascii;
    class       surfaceScalarField;
    location    "30";
    object      phi;
}
// * * * * * * * * * * * * * * * * * * * * * * * * * * * * * * * * * * * * * //

dimensions      [0 3 -1 0 0 0 0];

internalField   nonuniform List<scalar> 
39105
(
-1.3755695e-07
-2.775789e-08
-1.0542051e-07
-3.2114508e-08
-6.6203858e-08
-3.9212337e-08
-1.9504369e-08
-4.6703374e-08
2.7139326e-08
-4.6644761e-08
7.4968558e-08
-4.7828459e-08
1.239853e-07
-4.9018174e-08
1.7569231e-07
-5.1705482e-08
2.3153467e-07
-5.5842333e-08
2.8978265e-07
-5.8247971e-08
3.4918961e-07
-5.9406938e-08
4.0860944e-07
-5.941982e-08
4.6638515e-07
-5.7775697e-08
5.2114815e-07
-5.4762991e-08
5.7135741e-07
-5.020925e-08
6.1564325e-07
-4.428584e-08
6.5268978e-07
-3.7046533e-08
6.8246859e-07
-2.9778822e-08
7.0475491e-07
-2.228632e-08
7.2233367e-07
-1.7578774e-08
7.3531944e-07
-1.2985773e-08
7.5908302e-07
-2.3763588e-08
7.9294903e-07
-3.3866019e-08
7.4777917e-07
4.5169859e-08
6.2981219e-07
1.1796698e-07
4.8390072e-07
1.4591147e-07
3.3169114e-07
1.5220957e-07
1.9344631e-07
1.3824483e-07
8.6433176e-08
1.0701313e-07
1.8484469e-08
6.7948705e-08
-1.634585e-08
3.4830316e-08
-2.2882218e-08
6.5363657e-09
-3.2499315e-09
-1.9632289e-08
1.376325e-08
-1.7013183e-08
-2.0438431e-08
3.4201678e-08
-1.1528076e-07
9.4842325e-08
-2.1519804e-07
9.9917279e-08
-2.4525333e-07
3.0055289e-08
-1.7874633e-07
-6.6507003e-08
-5.2017354e-08
-1.2672898e-07
7.9294093e-08
-1.3131145e-07
1.8453763e-07
-1.0524354e-07
2.5556732e-07
-7.102969e-08
2.9060069e-07
-3.5033377e-08
2.9725665e-07
-6.6559573e-09
2.8818963e-07
9.0670198e-09
2.7523251e-07
1.2957118e-08
2.6682465e-07
8.4078604e-09
2.6678186e-07
4.2787214e-11
2.746575e-07
-7.875643e-09
2.8760642e-07
-1.2948922e-08
3.027808e-07
-1.5174378e-08
3.185095e-07
-1.57287e-08
3.3409906e-07
-1.5589565e-08
3.4887285e-07
-1.4773788e-08
3.6133597e-07
-1.2463119e-08
3.6992823e-07
-8.5922674e-09
3.7484148e-07
-4.9132481e-09
3.7285481e-07
1.9866708e-09
3.5546009e-07
1.7394727e-08
3.1703e-07
3.8430081e-08
2.582977e-07
5.8732307e-08
1.8439273e-07
7.3904964e-08
1.0205852e-07
8.233422e-08
1.7046963e-08
8.5011553e-08
-6.7069571e-08
8.4116534e-08
-1.4828603e-07
8.1216457e-08
-2.2529574e-07
7.7009715e-08
-2.9743326e-07
7.2137517e-08
-3.6449233e-07
6.7059069e-08
-4.2657039e-07
6.2078061e-08
-4.8391944e-07
5.7349052e-08
-5.3688566e-07
5.2966226e-08
-5.8585302e-07
4.8967357e-08
-6.3118017e-07
4.5327153e-08
-6.7320196e-07
4.202179e-08
-7.1220596e-07
3.9003994e-08
-7.484502e-07
3.6244246e-08
-7.8215424e-07
3.3704033e-08
-8.1349952e-07
3.1345283e-08
-8.4264316e-07
2.914364e-08
-8.6971937e-07
2.7076209e-08
-8.9484336e-07
2.5123984e-08
-9.1810894e-07
2.3265585e-08
-9.3960133e-07
2.1492393e-08
-9.5939189e-07
1.9790561e-08
-9.7754712e-07
1.8155229e-08
-9.9412721e-07
1.658009e-08
-1.0091904e-06
1.5063229e-08
-1.0227947e-06
1.3604286e-08
-1.0349928e-06
1.2198022e-08
-1.0458351e-06
1.0842342e-08
-1.0553662e-06
9.5311437e-09
-1.0636319e-06
8.265637e-09
-1.0706703e-06
7.0384653e-09
-1.0765224e-06
5.8521088e-09
-1.0812197e-06
4.6972886e-09
-1.0847997e-06
3.5799205e-09
-1.0872871e-06
2.4874555e-09
-1.0887094e-06
1.4222787e-09
-1.0890818e-06
3.7242743e-10
-1.0884314e-06
-6.5043415e-10
-1.0867772e-06
-1.6541411e-09
-1.0841406e-06
-2.6366029e-09
-1.0805358e-06
-3.6048442e-09
-1.0759704e-06
-4.5653649e-09
-1.07046e-06
-5.510401e-09
-1.0640129e-06
-6.4471678e-09
-1.0566368e-06
-7.3760756e-09
-1.0483425e-06
-8.2942608e-09
-1.0391282e-06
-9.2143645e-09
-1.0290091e-06
-1.0119091e-08
-1.0179809e-06
-1.1028135e-08
-1.0060603e-06
-1.1920574e-08
-9.9324456e-07
-1.2815788e-08
-9.7955102e-07
-1.3693541e-08
-9.6498261e-07
-1.456841e-08
-9.4955782e-07
-1.5424783e-08
-9.3328757e-07
-1.6270256e-08
-9.1619033e-07
-1.7097235e-08
-8.9829011e-07
-1.7900221e-08
-1.8684561e-08
-4.2168726e-07
-1.0742947e-07
-3.2153312e-07
-1.3224539e-07
-2.0084363e-07
-1.5989725e-07
-5.9629698e-08
-1.8792136e-07
8.3923292e-08
-1.9019895e-07
2.2957294e-07
-1.9347727e-07
3.8140703e-07
-2.0085381e-07
5.4250272e-07
-2.1279949e-07
7.1503432e-07
-2.2837389e-07
8.9483542e-07
-2.3804906e-07
1.0777726e-06
-2.4234408e-07
1.2604638e-06
-2.4211103e-07
1.4385059e-06
-2.3581781e-07
1.6077162e-06
-2.2397327e-07
1.7629565e-06
-2.0544948e-07
1.9002397e-06
-1.8156905e-07
2.0152834e-06
-1.5209023e-07
2.1083716e-06
-1.2286701e-07
2.1779103e-06
-9.1825083e-08
2.2334369e-06
-7.3105358e-08
2.2733206e-06
-5.2869532e-08
2.3467137e-06
-9.7156717e-08
2.4409151e-06
-1.2806738e-07
2.3096576e-06
1.7642737e-07
1.9572801e-06
4.7034446e-07
1.5154787e-06
5.8771292e-07
1.0488749e-06
6.1881331e-07
6.2079903e-07
5.6632071e-07
2.8514279e-07
4.4266937e-07
6.8744815e-08
2.8434668e-07
-4.40824e-08
1.4765753e-07
-6.660188e-08
2.9055844e-08
-8.9076092e-09
-7.7326563e-08
3.6796917e-08
-6.2717711e-08
-7.4698488e-08
1.4569708e-07
-3.6392547e-07
3.840693e-07
-6.580779e-07
3.9406971e-07
-7.3662815e-07
1.0860554e-07
-5.2582064e-07
-2.7731452e-07
-1.3741112e-07
-5.151385e-07
2.6053463e-07
-5.292572e-07
5.7815531e-07
-4.2286421e-07
7.923329e-07
-2.8520728e-07
8.984108e-07
-1.4111128e-07
9.1904138e-07
-2.7286537e-08
8.9226721e-07
3.5841187e-08
8.5362587e-07
5.1598455e-08
8.2870941e-07
3.3324316e-08
8.290041e-07
-2.5190351e-10
8.5309272e-07
-3.1964264e-08
8.9231493e-07
-5.217113e-08
9.380716e-07
-6.0931049e-08
9.8528793e-07
-6.2945033e-08
1.0316669e-06
-6.1968572e-08
1.0749313e-06
-5.8038179e-08
1.1102256e-06
-4.7757397e-08
1.1326908e-06
-3.10575e-08
1.1421747e-06
-1.4397122e-08
1.1280772e-06
1.6084206e-08
1.0651015e-06
8.0370375e-08
9.3723185e-07
1.6629976e-07
7.4793319e-07
2.4803097e-07
5.1386135e-07
3.079768e-07
2.5603909e-07
3.4015649e-07
-8.1139691e-09
3.4916461e-07
-2.6812899e-07
3.4413156e-07
-5.182548e-07
3.3134226e-07
-7.5478011e-07
3.1353503e-07
-9.7586787e-07
2.9322528e-07
-1.1810514e-06
2.7224256e-07
-1.3707354e-06
2.5176207e-07
-1.5457694e-06
2.3238311e-07
-1.7072673e-06
2.1446409e-07
-1.8564323e-06
1.9813234e-07
-1.9943903e-06
1.8328515e-07
-2.1221712e-06
1.6980273e-07
-2.2406667e-06
1.5749948e-07
-2.3506654e-06
1.4624297e-07
-2.4528414e-06
1.3587999e-07
-2.5477595e-06
1.2626335e-07
-2.6359034e-06
1.1728762e-07
-2.7176879e-06
1.0886063e-07
-2.7934651e-06
1.0090118e-07
-2.8635289e-06
9.3329413e-08
-2.9281415e-06
8.6105002e-08
-2.9875244e-06
7.917347e-08
-3.0418819e-06
7.2512743e-08
-3.0914026e-06
6.6100799e-08
-3.136267e-06
5.992762e-08
-3.1766532e-06
5.3990433e-08
-3.2127257e-06
4.8270577e-08
-3.2446403e-06
4.2756939e-08
-3.2725372e-06
3.7427999e-08
-3.2965531e-06
3.2281563e-08
-3.3168108e-06
2.7296201e-08
-3.3334302e-06
2.2471435e-08
-3.3465125e-06
1.7779634e-08
-3.3561665e-06
1.3233913e-08
-3.3624739e-06
8.7948694e-09
-3.3655132e-06
4.4615341e-09
-3.3653379e-06
1.9719548e-10
-3.3620243e-06
-3.9640618e-09
-3.3556383e-06
-8.04016e-09
-3.3462438e-06
-1.203109e-08
-3.3338868e-06
-1.5961891e-08
-3.3185984e-06
-1.9853678e-08
-3.3004226e-06
-2.3686212e-08
-3.2793852e-06
-2.7484589e-08
-3.2555094e-06
-3.125186e-08
-3.2288238e-06
-3.4979885e-08
-3.1993352e-06
-3.8702978e-08
-3.1670789e-06
-4.2375329e-08
-3.1320579e-06
-4.6049206e-08
-3.0943108e-06
-4.9667661e-08
-3.0538462e-06
-5.3280403e-08
-3.0107066e-06
-5.6833062e-08
-2.9649143e-06
-6.0360773e-08
-2.91652e-06
-6.3819054e-08
-2.8655655e-06
-6.722481e-08
-2.8121073e-06
-7.0555386e-08
-2.7562204e-06
-7.3787086e-08
-7.693795e-08
-7.2559451e-07
-2.4669497e-07
-5.5189486e-07
-3.0592241e-07
-3.4381671e-07
-3.6797092e-07
-1.0200155e-07
-4.2974052e-07
1.4584487e-07
-4.3804646e-07
3.960919e-07
-4.4372354e-07
6.5859463e-07
-4.6335799e-07
9.3764898e-07
-4.9185228e-07
1.2353847e-06
-5.2610954e-07
1.5454754e-06
-5.4813982e-07
1.8606229e-06
-5.5749148e-07
2.1751413e-06
-5.566295e-07
2.4820097e-06
-5.4268614e-07
2.7740755e-06
-5.1603908e-07
3.0422576e-06
-4.7363154e-07
3.2798267e-06
-4.1913819e-07
3.4793219e-06
-3.5158539e-07
3.6413228e-06
-2.8486796e-07
3.7625976e-06
-2.1309985e-07
3.8596873e-06
-1.7019512e-07
3.9290866e-06
-1.2226881e-07
4.0540153e-06
-2.2208542e-07
4.2054568e-06
-2.7950888e-07
3.9888248e-06
3.9305935e-07
3.3979499e-06
1.0612194e-06
2.647684e-06
1.3379788e-06
1.8473158e-06
1.4191815e-06
1.1063939e-06
1.3072426e-06
5.1932996e-07
1.0297334e-06
1.3598419e-07
6.6769244e-07
-6.6552819e-08
3.5019454e-07
-1.0918642e-07
7.1689446e-08
-1.4095311e-08
-1.7241768e-07
5.5168618e-08
-1.3198164e-07
-1.4524071e-07
3.461064e-07
-6.3866096e-07
8.7748955e-07
-1.1260919e-06
8.8150068e-07
-1.2420373e-06
2.2455095e-07
-8.7083117e-07
-6.4852069e-07
-2.0477803e-07
-1.1811916e-06
4.7155823e-07
-1.2055935e-06
1.0096048e-06
-9.6091079e-07
1.3724511e-06
-6.4805362e-07
1.5528449e-06
-3.2150507e-07
1.5887771e-06
-6.3218717e-08
1.5443525e-06
8.0265812e-08
1.4795972e-06
1.1635371e-07
1.4379962e-06
7.4925332e-08
1.4390246e-06
-1.2802761e-09
1.4802071e-06
-7.3146756e-08
1.5467946e-06
-1.187587e-07
1.6242046e-06
-1.3834102e-07
1.7037591e-06
-1.4249955e-07
1.7812867e-06
-1.3949612e-07
1.8525657e-06
-1.2931721e-07
1.9089178e-06
-1.0410948e-07
1.9417723e-06
-6.391204e-08
1.9498065e-06
-2.2431256e-08
1.9139661e-06
5.1924554e-08
1.7919104e-06
2.0242612e-07
1.5579222e-06
4.0028793e-07
1.2196682e-06
5.86285e-07
8.0705825e-07
7.2058671e-07
3.5667163e-07
7.9054311e-07
-1.0185876e-07
8.07695e-07
-5.5125858e-07
7.9353139e-07
-9.8226211e-07
7.6234579e-07
-1.388889e-06
7.2016187e-07
-1.7682817e-06
6.7261802e-07
-2.1198721e-06
6.2383295e-07
-2.4445137e-06
5.7640366e-07
-2.7437761e-06
5.3164558e-07
-3.0196456e-06
4.9033355e-07
-3.2742321e-06
4.5271881e-07
-3.5095029e-06
4.1855598e-07
-3.7272389e-06
3.8753872e-07
-3.9289846e-06
3.5924518e-07
-4.1160965e-06
3.3335487e-07
-4.2897351e-06
3.0951863e-07
-4.4508783e-06
2.8740653e-07
-4.6003601e-06
2.6676943e-07
-4.7388958e-06
2.4739632e-07
-4.8670913e-06
2.2909667e-07
-4.9854573e-06
2.1169539e-07
-5.0944462e-06
1.9509398e-07
-5.1944427e-06
1.7916994e-07
-5.2858001e-06
1.6387014e-07
-5.3688471e-06
1.4914781e-07
-5.443897e-06
1.349775e-07
-5.511257e-06
1.213504e-07
-5.5712128e-06
1.0822639e-07
-5.6240328e-06
9.5576949e-08
-5.6699612e-06
8.3356434e-08
-5.7092314e-06
7.1551704e-08
-5.7420578e-06
6.0122684e-08
-5.7686428e-06
4.9056373e-08
-5.7891642e-06
3.830109e-08
-5.803804e-06
2.78737e-08
-5.8127068e-06
1.7697679e-08
-5.8160033e-06
7.7579635e-09
-5.8137869e-06
-2.0191546e-09
-5.8061836e-06
-1.1567418e-08
-5.7933152e-06
-2.0908559e-08
-5.7752909e-06
-3.0055367e-08
-5.752192e-06
-3.9060787e-08
-5.7240785e-06
-4.7967185e-08
-5.691023e-06
-5.6741689e-08
-5.6530714e-06
-6.5436226e-08
-5.610264e-06
-7.4059265e-08
-5.5626477e-06
-8.2596132e-08
-5.5102445e-06
-9.1106163e-08
-5.4531078e-06
-9.9512067e-08
-5.3912551e-06
-1.0790184e-07
-5.324746e-06
-1.1617685e-07
-5.2536083e-06
-1.2441802e-07
-5.1779091e-06
-1.3253231e-07
-5.0976974e-06
-1.4057249e-07
-5.013058e-06
-1.4845845e-07
-4.9240697e-06
-1.5621305e-07
-4.8308319e-06
-1.6379325e-07
-4.733475e-06
-1.7114398e-07
-1.7830122e-07
-1.0492949e-06
-4.4998122e-07
-7.9686157e-07
-5.5833649e-07
-4.9548182e-07
-6.6934684e-07
-1.4602179e-07
-7.7920386e-07
2.138656e-07
-7.9793488e-07
5.7636929e-07
-8.0622656e-07
9.572886e-07
-8.4427856e-07
1.3623953e-06
-8.9695756e-07
1.7937907e-06
-9.5750495e-07
2.2428699e-06
-9.9721892e-07
2.699056e-06
-1.0136776e-06
3.154272e-06
-1.0118455e-06
3.5987954e-06
-9.8720945e-07
4.0223474e-06
-9.3959112e-07
4.4117375e-06
-8.6302162e-07
4.7572146e-06
-7.6461523e-07
5.0480755e-06
-6.4244634e-07
5.2849094e-06
-5.2170192e-07
5.4629667e-06
-3.9115712e-07
5.6053277e-06
-3.1255616e-07
5.7075996e-06
-2.2454063e-07
5.8849238e-06
-3.9940969e-07
6.0916074e-06
-4.8619242e-07
5.7901764e-06
6.9449031e-07
4.9585054e-06
1.8928904e-06
3.8881552e-06
2.4083289e-06
2.7348674e-06
2.5724693e-06
1.657083e-06
2.385027e-06
7.9415596e-07
1.8926604e-06
2.2336956e-07
1.2384788e-06
-8.2113795e-08
6.5567789e-07
-1.5000131e-07
1.3957695e-07
-1.8980571e-08
-3.0343842e-07
6.7828205e-08
-2.1879042e-07
-2.335463e-07
6.4748091e-07
-9.4000956e-07
1.5839528e-06
-1.6180725e-06
1.5595636e-06
-1.7589901e-06
3.6546853e-07
-1.2107616e-06
-1.1967492e-06
-2.51386e-07
-2.1405673e-06
7.1451356e-07
-2.171493e-06
1.4805936e-06
-1.7269908e-06
1.997624e-06
-1.165084e-06
2.2557942e-06
-5.7967523e-07
2.3086731e-06
-1.1609769e-07
2.2469124e-06
1.4202652e-07
2.1557849e-06
2.0748125e-07
2.0973668e-06
1.3334339e-07
2.099481e-06
-3.3944163e-09
2.1585363e-06
-1.3220213e-07
2.2534548e-06
-2.1367715e-07
2.3634409e-06
-2.483271e-07
2.4759859e-06
-2.5504459e-07
2.5847506e-06
-2.4826083e-07
2.683179e-06
-2.2774563e-07
2.7582936e-06
-1.7922408e-07
2.7972733e-06
-1.0289175e-07
2.7966761e-06
-2.183398e-08
2.7279622e-06
1.2063842e-07
2.5315725e-06
3.9881583e-07
2.1729416e-06
7.5891883e-07
1.6655851e-06
1.0936414e-06
1.0545608e-06
1.331611e-06
3.9338008e-07
1.4517239e-06
-2.7554877e-07
1.4766239e-06
-9.2836211e-07
1.4463447e-06
-1.5526151e-06
1.3865988e-06
-2.1401918e-06
1.3077386e-06
-2.6873997e-06
1.2198259e-06
-3.1937508e-06
1.1301841e-06
-3.6607103e-06
1.0433632e-06
-4.0907048e-06
9.6164011e-07
-4.4867061e-06
8.8633486e-07
-4.851829e-06
8.1784172e-07
-5.1889595e-06
7.5568639e-07
-5.5006925e-06
6.9927175e-07
-5.7892768e-06
6.4782945e-07
-6.0566785e-06
6.0075665e-07
-6.3045797e-06
5.574198e-07
-6.5343994e-06
5.1722618e-07
-6.747347e-06
4.7971707e-07
-6.9444594e-06
4.4450872e-07
-7.1266148e-06
4.1125202e-07
-7.294557e-06
3.796376e-07
-7.4489432e-06
3.4948025e-07
-7.5903351e-06
3.2056176e-07
-7.7192479e-06
2.92783e-07
-7.8361627e-06
2.6606253e-07
-7.9415367e-06
2.403515e-07
-8.0358162e-06
2.1562993e-07
-8.1194171e-06
1.9182727e-07
-8.1927283e-06
1.6888814e-07
-8.2561059e-06
1.4673411e-07
-8.3098867e-06
1.2533253e-07
-8.3543835e-06
1.0461939e-07
-8.3898857e-06
8.4558643e-08
-8.4166539e-06
6.5069301e-08
-8.4349475e-06
4.6167216e-08
-8.4449781e-06
2.7728343e-08
-8.4469292e-06
9.7090876e-09
-8.4409331e-06
-8.0153271e-09
-8.4271694e-06
-2.5331049e-08
-8.405824e-06
-4.2253982e-08
-8.3770551e-06
-5.8824272e-08
-8.3409829e-06
-7.5133018e-08
-8.2976994e-06
-9.1250665e-08
-8.247308e-06
-1.0713312e-07
-8.1898773e-06
-1.2286691e-07
-8.1254678e-06
-1.3846875e-07
-8.0541475e-06
-1.5391644e-07
-7.9759562e-06
-1.6929744e-07
-7.8909678e-06
-1.8450041e-07
-7.7992187e-06
-1.9965103e-07
-7.7007916e-06
-2.1460388e-07
-7.5957382e-06
-2.2947148e-07
-7.4841531e-06
-2.4411733e-07
-7.3661172e-06
-2.5860845e-07
-7.2417536e-06
-2.7282207e-07
-7.1111832e-06
-2.8678341e-07
-6.9745533e-06
-3.0042315e-07
-6.8320553e-06
-3.1364195e-07
-3.2649736e-07
-1.3935132e-06
-7.218595e-07
-1.0570601e-06
-8.9477273e-07
-6.5635564e-07
-1.070048e-06
-1.9202654e-07
-1.2435359e-06
2.8793527e-07
-1.2778975e-06
7.7063414e-07
-1.2889249e-06
1.2779176e-06
-1.3515631e-06
1.8173538e-06
-1.4363926e-06
2.3910253e-06
-1.5311763e-06
2.9879468e-06
-1.5941405e-06
3.5941574e-06
-1.6198882e-06
4.199106e-06
-1.616794e-06
4.7903085e-06
-1.5784119e-06
5.3542333e-06
-1.503516e-06
5.8734107e-06
-1.3821989e-06
6.3347928e-06
-1.2259973e-06
6.7243597e-06
-1.0320133e-06
7.0423993e-06
-8.3974159e-07
7.2827712e-06
-6.3152901e-07
7.4745381e-06
-5.0432308e-07
7.6134572e-06
-3.6345973e-07
7.8440136e-06
-6.2996609e-07
8.1036224e-06
-7.4580117e-07
7.7188503e-06
1.0792624e-06
6.6459195e-06
2.9658212e-06
5.2452894e-06
3.8089591e-06
3.7203279e-06
4.0974307e-06
2.2808299e-06
3.824525e-06
1.1157269e-06
3.0577633e-06
3.3475205e-07
2.0194537e-06
-8.8777228e-08
1.0792072e-06
-1.8825103e-07
2.3905075e-07
-2.369195e-08
-4.679975e-07
7.3703532e-08
-3.1618591e-07
-3.4096389e-07
1.0621483e-06
-1.268189e-06
2.511178e-06
-2.1323389e-06
2.4237134e-06
-2.2844469e-06
5.175766e-07
-1.5422224e-06
-1.9389738e-06
-2.7433748e-07
-3.4084521e-06
9.9147133e-07
-3.4373018e-06
1.9926628e-06
-2.7281823e-06
2.6693239e-06
-1.8417451e-06
3.0089934e-06
-9.1934477e-07
3.080854e-06
-1.8795829e-07
3.0024081e-06
2.2047243e-07
2.8848551e-06
3.2503431e-07
2.8095428e-06
2.0865568e-07
2.8130312e-06
-6.8828222e-09
2.890601e-06
-2.0977192e-07
3.0146414e-06
-3.3771754e-07
3.157926e-06
-3.9161179e-07
3.3038669e-06
-4.0098544e-07
3.443627e-06
-3.8802094e-07
3.5678914e-06
-3.5201005e-07
3.6588708e-06
-2.7020343e-07
3.6988556e-06
-1.4287656e-07
3.6811917e-06
-4.1700715e-09
3.5668265e-06
2.3500359e-07
3.2789497e-06
6.8669259e-07
2.775161e-06
1.2627076e-06
2.0766771e-06
1.7921253e-06
1.2457919e-06
2.1624962e-06
3.5448055e-07
2.3430352e-06
-5.415482e-07
2.3726526e-06
-1.4122692e-06
2.3170657e-06
-2.2424714e-06
2.2168009e-06
-3.0220364e-06
2.0873036e-06
-3.7466563e-06
1.9444457e-06
-4.4161318e-06
1.7996596e-06
-5.032723e-06
1.6599543e-06
-5.5998636e-06
1.5287807e-06
-6.1216337e-06
1.4081049e-06
-6.6022588e-06
1.2984669e-06
-7.0456256e-06
1.1990532e-06
-7.4552111e-06
1.1088572e-06
-7.8340221e-06
1.0266405e-06
-8.1846784e-06
9.5141293e-07
-8.5094196e-06
8.82161e-07
-8.8101362e-06
8.1794279e-07
-9.0884393e-06
7.5802014e-07
-9.3457089e-06
7.0177839e-07
-9.583115e-06
6.4865814e-07
-9.8016523e-06
5.9817483e-07
-1.0002198e-05
5.5002583e-07
-1.0185505e-05
5.0386881e-07
-1.0352265e-05
4.595428e-07
-1.0503123e-05
4.1692076e-07
-1.0638693e-05
3.7592151e-07
-1.075957e-05
3.3650743e-07
-1.0866311e-05
2.9856743e-07
-1.0959431e-05
2.6200879e-07
-1.1039409e-05
2.2671147e-07
-1.110669e-05
1.9261392e-07
-1.1161693e-05
1.5962194e-07
-1.1204799e-05
1.2766517e-07
-1.1236358e-05
9.6628198e-08
-1.1256711e-05
6.6519782e-08
-1.126614e-05
3.715826e-08
-1.126488e-05
8.4482825e-09
-1.1253099e-05
-1.9796449e-08
-1.123104e-05
-4.7389809e-08
-1.119896e-05
-7.4334103e-08
-1.115707e-05
-1.0071377e-07
-1.1105534e-05
-1.2666885e-07
-1.104448e-05
-1.5230521e-07
-1.0974043e-05
-1.7757028e-07
-1.0894318e-05
-2.0259186e-07
-1.0805389e-05
-2.2739791e-07
-1.0707347e-05
-2.5195781e-07
-1.0600255e-05
-2.7639002e-07
-1.0484208e-05
-3.0054679e-07
-1.0359267e-05
-3.2459261e-07
-1.022554e-05
-3.4833067e-07
-1.0083107e-05
-3.7190441e-07
-9.9320947e-06
-3.9512956e-07
-9.7726201e-06
-4.1808296e-07
-9.6048498e-06
-4.4059241e-07
-9.4289518e-06
-4.6268137e-07
-9.2451273e-06
-4.8424771e-07
-9.0536338e-06
-5.0513538e-07
-5.2542539e-07
-1.7589237e-06
-1.0670105e-06
-1.3330901e-06
-1.3205913e-06
-8.2695992e-07
-1.5761752e-06
-2.4039685e-07
-1.8301015e-06
3.6792459e-07
-1.8862198e-06
9.7899131e-07
-1.8999912e-06
1.6207473e-06
-1.99332e-06
2.3029199e-06
-2.1185641e-06
3.027583e-06
-2.2558394e-06
3.7813082e-06
-2.3478656e-06
4.5466381e-06
-2.385218e-06
5.310482e-06
-2.3806379e-06
6.0575613e-06
-2.3254912e-06
6.7709852e-06
-2.2169399e-06
7.4288313e-06
-2.040045e-06
8.014483e-06
-1.811649e-06
8.5105272e-06
-1.5280574e-06
8.9166405e-06
-1.2458549e-06
9.2253845e-06
-9.4027301e-07
9.4711746e-06
-7.5011314e-07
9.6509611e-06
-5.4324632e-07
9.9356357e-06
-9.146406e-07
1.0245667e-05
-1.0558322e-06
9.7798767e-06
1.5450523e-06
8.467108e-06
4.2785899e-06
6.727693e-06
5.5483741e-06
4.813e-06
6.0121238e-06
2.98631e-06
5.651215e-06
1.4908862e-06
4.5531871e-06
4.745743e-07
3.0357656e-06
-8.4192058e-08
1.6379735e-06
-2.2299735e-07
3.7785604e-07
-2.8368231e-08
-6.6262662e-07
7.1692094e-08
-4.1624623e-07
-4.6870641e-07
1.6025468e-06
-1.6230588e-06
3.6655303e-06
-2.666771e-06
3.4674256e-06
-2.8149804e-06
6.6578606e-07
-1.8615263e-06
-2.8924279e-06
-2.7063276e-07
-4.9993456e-06
1.3044304e-06
-5.012365e-06
2.5472519e-06
-3.9710038e-06
3.3889306e-06
-2.6834238e-06
3.8141149e-06
-1.344529e-06
3.9074194e-06
-2.8126277e-07
3.8133121e-06
3.145797e-07
3.6695105e-06
4.6883593e-07
3.5772883e-06
3.0087787e-07
3.582363e-06
-1.1957555e-08
3.6789258e-06
-3.063347e-07
3.8326722e-06
-4.9146395e-07
4.0097397e-06
-5.686793e-07
4.1891916e-06
-5.8043731e-07
4.3593252e-06
-5.5815453e-07
4.5076058e-06
-5.0029068e-07
4.6108791e-06
-3.7347675e-07
4.6457981e-06
-1.7779555e-07
4.601247e-06
4.0381005e-08
4.4266418e-06
4.0960884e-07
4.0280395e-06
1.0852949e-06
3.3563982e-06
1.9343489e-06
2.4427306e-06
2.7057929e-06
1.3688797e-06
3.2363472e-06
2.2706062e-07
3.4848543e-06
-9.1334957e-07
3.5130628e-06
-2.016901e-06
3.4206172e-06
-3.0660202e-06
3.2659202e-06
-4.0487381e-06
3.0700215e-06
-4.9603878e-06
2.8560954e-06
-5.8012954e-06
2.6405672e-06
-6.5747196e-06
2.4333785e-06
-7.2852665e-06
2.2393276e-06
-7.9382572e-06
2.0610957e-06
-8.5391403e-06
1.8993499e-06
-9.0928918e-06
1.7528047e-06
-9.6039421e-06
1.6199075e-06
-1.0076113e-05
1.4988113e-06
-1.0512723e-05
1.3880235e-06
-1.0916609e-05
1.2860467e-06
-1.1290163e-05
1.191497e-06
-1.1635426e-05
1.1032826e-06
-1.1954143e-05
1.0204955e-06
-1.2247797e-05
9.4231196e-07
-1.2517651e-05
8.6802902e-07
-1.2764819e-05
7.9719385e-07
-1.2990261e-05
7.2931095e-07
-1.3194859e-05
6.6414057e-07
-1.3379436e-05
6.0149805e-07
-1.3544774e-05
5.4125987e-07
-1.3691629e-05
4.8336243e-07
-1.3820705e-05
4.2764347e-07
-1.3932658e-05
3.7396125e-07
-1.4028091e-05
3.221449e-07
-1.4107571e-05
2.7209366e-07
-1.4171625e-05
2.2367594e-07
-1.4220735e-05
1.7677525e-07
-1.4255343e-05
1.3123644e-07
-1.4275877e-05
8.7053801e-08
-1.4282698e-05
4.3978866e-08
-1.4276074e-05
1.824213e-09
-1.4256216e-05
-3.9654521e-08
-1.4223446e-05
-8.0160045e-08
-1.4178094e-05
-1.1968564e-07
-1.4120432e-05
-1.5837583e-07
-1.405067e-05
-1.9643096e-07
-1.3968975e-05
-2.340005e-07
-1.3875517e-05
-2.7102757e-07
-1.3770423e-05
-3.0768663e-07
-1.36538e-05
-3.4402013e-07
-1.352577e-05
-3.7998814e-07
-1.3386417e-05
-4.1574285e-07
-1.3235866e-05
-4.5109802e-07
-1.3074202e-05
-4.8625705e-07
-1.2901565e-05
-5.2096754e-07
-1.2718066e-05
-5.5540267e-07
-1.252387e-05
-5.8932587e-07
-1.2319134e-05
-6.228188e-07
-1.2104073e-05
-6.556532e-07
-1.1878909e-05
-6.8784602e-07
-1.1643901e-05
-7.1925521e-07
-1.139938e-05
-7.4965645e-07
-7.7915391e-07
-2.1462106e-06
-1.4902222e-06
-1.6255715e-06
-1.8412183e-06
-1.0078771e-06
-2.193867e-06
-2.9162342e-07
-2.5463573e-06
4.5355563e-07
-2.6313994e-06
1.2013785e-06
-2.6478137e-06
1.985826e-06
-2.7777683e-06
2.8192175e-06
-2.9519547e-06
3.7036698e-06
-3.1402917e-06
4.6232104e-06
-3.2674062e-06
5.5568017e-06
-3.3188093e-06
6.4887667e-06
-3.3126029e-06
7.4010316e-06
-3.2377561e-06
8.2732562e-06
-3.0891645e-06
9.0789465e-06
-2.8457353e-06
9.7975854e-06
-2.5302879e-06
1.0408344e-05
-2.1388164e-06
1.0909893e-05
-1.7474032e-06
1.129363e-05
-1.3240102e-06
1.1598598e-05
-1.0550815e-06
1.1823953e-05
-7.6860077e-07
1.2163775e-05
-1.2544628e-06
1.2521695e-05
-1.4137525e-06
1.1978071e-05
2.0886769e-06
1.0428813e-05
5.8278475e-06
8.3440729e-06
7.6331142e-06
6.0226249e-06
8.3335718e-06
3.7829034e-06
7.8909366e-06
1.9272613e-06
6.4088292e-06
6.4793905e-07
4.3150878e-06
-6.5586936e-08
2.3514995e-06
-2.5313073e-07
5.6539983e-07
-3.3148149e-08
-8.8260921e-07
6.0686738e-08
-5.1008112e-07
-6.1779941e-07
2.281033e-06
-2.0040718e-06
5.0518027e-06
-3.2187862e-06
4.6821401e-06
-3.3467702e-06
7.9377005e-07
-2.1646917e-06
-4.0745065e-06
-2.3720265e-07
-6.9268347e-06
1.6552766e-06
-6.9048442e-06
3.1456786e-06
-5.4614058e-06
4.1577131e-06
-3.6954584e-06
4.6727485e-06
-1.8595644e-06
4.7904232e-06
-3.9893745e-07
4.6820879e-06
4.2291491e-07
4.5124714e-06
6.3845251e-07
4.4033927e-06
4.0995649e-07
4.410177e-06
-1.8741843e-08
4.5260219e-06
-4.2217956e-07
4.7098165e-06
-6.752586e-07
4.9208713e-06
-7.7973407e-07
5.1336117e-06
-7.9317776e-07
5.3330622e-06
-7.5760496e-07
5.5029696e-06
-6.701981e-07
5.6142166e-06
-4.8472374e-07
5.6369287e-06
-2.0050771e-07
5.5541411e-06
1.2316867e-07
5.3027304e-06
6.6101954e-07
4.7718702e-06
1.6161551e-06
3.9072934e-06
2.7989256e-06
2.7521938e-06
3.8608925e-06
1.4105344e-06
4.5780066e-06
-3.0633007e-09
4.898452e-06
-1.4055706e-06
4.9155701e-06
-2.7572824e-06
4.772329e-06
-4.0384744e-06
4.5471122e-06
-5.235552e-06
4.2670991e-06
-6.3437868e-06
3.9643302e-06
-7.3642945e-06
3.6610749e-06
-8.3015604e-06
3.3706443e-06
-9.161542e-06
3.0993092e-06
-9.9509437e-06
2.8504974e-06
-1.0676559e-05
2.6249654e-06
-1.1344546e-05
2.4207919e-06
-1.1960365e-05
2.2357259e-06
-1.252871e-05
2.0671569e-06
-1.305365e-05
1.9129627e-06
-1.3538654e-05
1.7710514e-06
-1.3986652e-05
1.6394949e-06
-1.4400141e-05
1.516771e-06
-1.4781256e-05
1.4016107e-06
-1.5131814e-05
1.2928701e-06
-1.5453366e-05
1.1895814e-06
-1.574728e-05
1.091107e-06
-1.6014738e-05
9.9676909e-07
-1.6256827e-05
9.0623017e-07
-1.6474564e-05
8.1923509e-07
-1.6668911e-05
7.3560644e-07
-1.6840794e-05
6.5524529e-07
-1.6991076e-05
5.7792609e-07
-1.712056e-05
5.0344526e-07
-1.7229987e-05
4.3157161e-07
-1.7320048e-05
3.621541e-07
-1.7391387e-05
2.9501566e-07
-1.7444593e-05
2.2998061e-07
-1.7480205e-05
1.6684897e-07
-1.7498744e-05
1.0559221e-07
-1.7500651e-05
4.5886587e-08
-1.748621e-05
-1.261723e-08
-1.7455678e-05
-7.0186216e-08
-1.7409486e-05
-1.2635268e-07
-1.7348035e-05
-1.8113623e-07
-1.7271662e-05
-2.3474917e-07
-1.7180629e-05
-2.8746399e-07
-1.7075146e-05
-3.3948307e-07
-1.6955423e-05
-3.9075095e-07
-1.6821616e-05
-4.4149293e-07
-1.6673868e-05
-4.9176887e-07
-1.6512326e-05
-5.4152941e-07
-1.6337107e-05
-5.9096254e-07
-1.6148363e-05
-6.3984199e-07
-1.5946211e-05
-6.8840861e-07
-1.5730827e-05
-7.3635162e-07
-1.5502358e-05
-7.8387125e-07
-1.526101e-05
-8.3067438e-07
-1.5006987e-05
-8.7684194e-07
-1.4740557e-05
-9.2208267e-07
-1.4462001e-05
-9.6640258e-07
-1.4171644e-05
-1.0096115e-06
-1.3869895e-05
-1.0514057e-06
-1.0919109e-06
-2.5560523e-06
-1.9963739e-06
-1.9351452e-06
-2.4621138e-06
-1.1997493e-06
-2.9292605e-06
-3.4632625e-07
-3.3997822e-06
5.4436992e-07
-3.5220963e-06
1.4375068e-06
-3.5409502e-06
2.3729379e-06
-3.7132001e-06
3.3660565e-06
-3.9450724e-06
4.4190638e-06
-4.193299e-06
5.5134257e-06
-4.3617681e-06
6.6244016e-06
-4.4297853e-06
7.7337081e-06
-4.4219093e-06
8.8205228e-06
-4.3245708e-06
9.8609757e-06
-4.1296174e-06
1.0823925e-05
-3.8086846e-06
1.1684609e-05
-3.3909721e-06
1.2418722e-05
-2.8729292e-06
1.3023602e-05
-2.3522835e-06
1.3489535e-05
-1.7899426e-06
1.3859439e-05
-1.424986e-06
1.4135573e-05
-1.044735e-06
1.4531815e-05
-1.6507041e-06
1.4935257e-05
-1.8171946e-06
1.4317863e-05
2.7060703e-06
1.253744e-05
7.6082704e-06
1.0103092e-05
1.0067462e-05
7.3592866e-06
1.1077377e-05
4.6806709e-06
1.0569552e-05
2.4333038e-06
8.6561963e-06
8.6068119e-07
5.8877104e-06
-2.9704748e-08
3.2418854e-06
-2.7733397e-07
8.1302905e-07
-3.8155582e-08
-1.1217876e-06
3.9604248e-08
-5.8784095e-07
-7.8902494e-07
3.1096622e-06
-2.4102285e-06
6.6730063e-06
-3.7853183e-06
6.0572299e-06
-3.8756001e-06
8.8405188e-07
-2.4474497e-06
-5.5026569e-06
-1.7094921e-07
-9.2033351e-06
2.0457317e-06
-9.1215251e-06
3.7891129e-06
-7.204787e-06
4.9768058e-06
-4.8831512e-06
5.5863772e-06
-2.4691358e-06
5.7318477e-06
-5.4440797e-07
5.6111646e-06
5.4359802e-07
5.4164513e-06
8.3316583e-07
5.2906485e-06
5.3575931e-07
5.2991652e-06
-2.7258578e-08
5.4343646e-06
-5.5737893e-07
5.6482703e-06
-8.8916435e-07
5.8931915e-06
-1.0246553e-06
6.1386083e-06
-1.0385945e-06
6.3658241e-06
-9.8482077e-07
6.5543302e-06
-8.5870417e-07
6.6683977e-06
-5.9879124e-07
6.6705801e-06
-2.026901e-07
6.5365201e-06
2.572286e-07
6.189559e-06
1.0079806e-06
5.5023804e-06
2.3033337e-06
4.4171685e-06
3.8841375e-06
2.9920322e-06
5.2860288e-06
1.355939e-06
6.2140997e-06
-3.5136053e-07
6.6057516e-06
-2.0339243e-06
6.5981339e-06
-3.6495178e-06
6.3879224e-06
-5.1760188e-06
6.0736133e-06
-6.5985956e-06
5.6896759e-06
-7.9127984e-06
5.2785331e-06
-9.1208295e-06
4.8691059e-06
-1.022865e-05
4.4784644e-06
-1.1243763e-05
4.1144231e-06
-1.2174415e-05
3.7811494e-06
-1.3028868e-05
3.479418e-06
-1.3814562e-05
3.2064856e-06
-1.4538064e-05
2.9592283e-06
-1.5205008e-05
2.7341009e-06
-1.5820258e-05
2.5282123e-06
-1.638796e-05
2.3387541e-06
-1.6911614e-05
2.1631484e-06
-1.7394201e-05
1.9993579e-06
-1.7838273e-05
1.845683e-06
-1.8246003e-05
1.7005996e-06
-1.8619248e-05
1.5628269e-06
-1.8959647e-05
1.4315057e-06
-1.9268624e-05
1.3057462e-06
-1.9547487e-05
1.1850929e-06
-1.9797456e-05
1.0692049e-06
-2.0019689e-05
9.5783924e-07
-2.0215294e-05
8.5084989e-07
-2.0385303e-05
7.4793503e-07
-2.0530673e-05
6.4881546e-07
-2.0652291e-05
5.5318966e-07
-2.0750981e-05
4.6084409e-07
-2.0827513e-05
3.7154779e-07
-2.0882584e-05
2.8505132e-07
-2.091684e-05
2.0110492e-07
-2.0930895e-05
1.1964756e-07
-2.0925265e-05
4.0255964e-08
-2.0900237e-05
-3.7644998e-08
-2.0856136e-05
-1.1428655e-07
-2.079351e-05
-1.8897966e-07
-2.0712836e-05
-2.6180972e-07
-2.0614522e-05
-3.3306331e-07
-2.0498889e-05
-4.0309725e-07
-2.0366194e-05
-4.7217796e-07
-2.0216686e-05
-5.4025819e-07
-2.0050562e-05
-6.0761733e-07
-1.9867995e-05
-6.7433562e-07
-1.9669171e-05
-7.4035413e-07
-1.9454234e-05
-8.0589888e-07
-1.9223375e-05
-8.7070157e-07
-1.8976744e-05
-9.3503904e-07
-1.8714557e-05
-9.9853867e-07
-1.8437003e-05
-1.061425e-06
-1.8144333e-05
-1.1233443e-06
-1.7836805e-05
-1.1843701e-06
-1.7514746e-05
-1.2441422e-06
-1.7178499e-05
-1.3026493e-06
-1.6828465e-05
-1.3596455e-06
-1.6465133e-05
-1.4147375e-06
-1.4680681e-06
-2.9891164e-06
-2.5903839e-06
-2.2624614e-06
-3.1887605e-06
-1.4032848e-06
-3.7884354e-06
-4.0528437e-07
-4.3977841e-06
6.3967273e-07
-4.5670538e-06
1.6868067e-06
-4.5880839e-06
2.7815039e-06
-4.8078978e-06
3.9428086e-06
-5.1063767e-06
5.1730576e-06
-5.4235479e-06
6.4511104e-06
-5.6398209e-06
7.7484964e-06
-5.7271713e-06
9.0442979e-06
-5.7177107e-06
1.0314968e-05
-5.5952411e-06
1.153311e-05
-5.3477596e-06
1.2662843e-05
-4.9384173e-06
1.3674918e-05
-4.4030468e-06
1.454143e-05
-3.7394411e-06
1.5258053e-05
-3.0689064e-06
1.5813996e-05
-2.345886e-06
1.6255236e-05
-1.8662258e-06
1.6587922e-05
-1.377421e-06
1.7042212e-05
-2.1049946e-06
1.7489193e-05
-2.264175e-06
1.6803049e-05
3.3922138e-06
1.4798839e-05
9.6124803e-06
1.2013174e-05
1.2853127e-05
8.8332797e-06
1.4257272e-05
5.6902995e-06
1.3712532e-05
3.0183173e-06
1.1328179e-05
1.1194376e-06
7.7865902e-06
2.7269806e-08
4.3340532e-06
-2.9403615e-07
1.134335e-06
-4.3479332e-08
-1.3723444e-06
7.4414294e-09
-6.3876172e-07
-9.8286215e-07
4.0999657e-06
-2.840031e-06
8.5301751e-06
-4.3627987e-06
7.5799975e-06