/*--------------------------------*- C++ -*----------------------------------*\
| =========                 |                                                 |
| \\      /  F ield         | OpenFOAM: The Open Source CFD Toolbox           |
|  \\    /   O peration     | Version:  2.4.0                                 |
|   \\  /    A nd           | Web:      www.OpenFOAM.org                      |
|    \\/     M anipulation  |                                                 |
\*---------------------------------------------------------------------------*/
FoamFile
{
    version     2.0;
    format      ascii;
    class       surfaceScalarField;
    location    "10000";
    object      phi;
}
// * * * * * * * * * * * * * * * * * * * * * * * * * * * * * * * * * * * * * //

dimensions      [0 3 -1 0 0 0 0];

internalField   nonuniform List<scalar> 
19323
(
-1.011453e-05
-1.0162108e-05
-9.47906e-06
-1.0020271e-05
-8.8524581e-06
-9.8745169e-06
-8.2349567e-06
-9.7250333e-06
-7.6268121e-06
-9.5714259e-06
-7.0282725e-06
-9.4139076e-06
-6.4396367e-06
-9.2515823e-06
-9.0851808e-06
-1.3713093e-05
-1.1526084e-05
-1.3011119e-05
-1.1394865e-05
-1.2317167e-05
-1.1259691e-05
-1.1631464e-05
-1.1120546e-05
-1.0954235e-05
-1.0977648e-05
-1.0285717e-05
-1.0830627e-05
-9.6261369e-06
-1.067985e-05
-8.9757448e-06
-1.0524909e-05
-8.3347825e-06
-1.0365995e-05
-7.7035126e-06
-1.0202696e-05
-7.0821966e-06
-1.0035223e-05
-6.4711418e-06
-9.862637e-06
-5.8706267e-06
-9.685695e-06
-5.2810043e-06
-9.5028997e-06
-4.7026028e-06
-9.3151145e-06
-4.1358552e-06
-9.119954e-06
-8.9191515e-06
-1.623843e-05
-1.2654205e-05
-1.5486749e-05
-1.2527971e-05
-1.474266e-05
-1.2397316e-05
-1.4006401e-05
-1.2262342e-05
-1.3278215e-05
-1.2123051e-05
-1.2558334e-05
-1.1979572e-05
-1.1846998e-05
-1.1831882e-05
-1.1144437e-05
-1.1680209e-05
-1.0450898e-05
-1.1524166e-05
-9.766619e-06
-1.1364128e-05
-9.0918556e-06
-1.1199672e-05
-8.426857e-06
-1.1030992e-05
-7.7718997e-06
-1.0857653e-05
-7.1272525e-06
-1.067987e-05
-6.4932338e-06
-1.0496656e-05
-5.8701355e-06
-1.0308793e-05
-5.2583214e-06
-1.0114712e-05
-4.6581317e-06
-9.9153039e-06
-4.0700152e-06
-9.7080697e-06
-3.49437e-06
-9.494796e-06
-9.2717098e-06
-2.648053e-05
-1.4635982e-05
-2.5627878e-05
-1.4569199e-05
-2.4779691e-05
-1.4495803e-05
-2.3936296e-05
-1.4416046e-05
-2.3098005e-05
-1.4330055e-05
-2.2265131e-05
-1.4238105e-05
-2.1437974e-05
-1.4140303e-05
-2.0616822e-05
-1.4036896e-05
-1.9801958e-05
-1.3927995e-05
-1.8993663e-05
-1.3813829e-05
-1.8192201e-05
-1.3694555e-05
-1.7397837e-05
-1.3570326e-05
-1.661083e-05
-1.3441213e-05
-1.5831431e-05
-1.3307368e-05
-1.5059893e-05
-1.3168854e-05
-1.4296465e-05
-1.3025771e-05
-1.3541395e-05
-1.2878121e-05
-1.2794926e-05
-1.2726041e-05
-1.2057302e-05
-1.2569506e-05
-1.1328765e-05
-1.2408747e-05
-1.0609571e-05
-1.224336e-05
-9.8999634e-06
-1.2073736e-05
-9.2002095e-06
-1.1899425e-05
-8.5105705e-06
-1.1720631e-05
-7.8313277e-06
-1.1536895e-05
-7.1627628e-06
-1.1348434e-05
-6.5052062e-06
-1.1154212e-05
-5.8589595e-06
-1.0955039e-05
-5.2244003e-06
-1.074927e-05
-4.6018833e-06
-1.0537821e-05
-3.9918689e-06
-1.0318083e-05
-3.394772e-06
-1.0091892e-05
-2.8111733e-06
-9.8553084e-06
-2.2415722e-06
-9.6109478e-06
-9.3527333e-06
-2.7211128e-05
-1.552398e-05
-2.6327415e-05
-1.5452913e-05
-2.544833e-05
-1.5374889e-05
-2.457421e-05
-1.5290166e-05
-2.3705383e-05
-1.5198883e-05
-2.2842167e-05
-1.510132e-05
-2.1984868e-05
-1.4997602e-05
-2.1133792e-05
-1.4887971e-05
-2.028923e-05
-1.4772557e-05
-1.9451467e-05
-1.4651592e-05
-1.8620778e-05
-1.4525244e-05
-1.779744e-05
-1.4393664e-05
-1.6981715e-05
-1.4256938e-05
-1.6173869e-05
-1.4115213e-05
-1.5374163e-05
-1.396856e-05
-1.4582852e-05
-1.3817082e-05
-1.3800191e-05
-1.3660782e-05
-1.3026434e-05
-1.3499798e-05
-1.2261836e-05
-1.3334104e-05
-1.1506643e-05
-1.3163939e-05
-1.0761122e-05
-1.2988881e-05
-1.0025529e-05
-1.280933e-05
-9.3001357e-06
-1.2624818e-05
-8.5852147e-06
-1.2435552e-05
-7.8810583e-06
-1.2241051e-05
-7.1879594e-06
-1.2041533e-05
-6.5062567e-06
-1.1835914e-05
-5.8362675e-06
-1.1625028e-05
-5.1783779e-06
-1.1407159e-05
-4.5329619e-06
-1.1183237e-05
-3.9004917e-06
-1.0950553e-05
-3.2814021e-06
-1.0710981e-05
-2.6762868e-06
-1.0460424e-05
-2.0856709e-06
-1.0201563e-05
-1.5103232e-06
-9.92808e-06
-9.508902e-07
-9.6444832e-06
-9.3413303e-06
-2.8869559e-05
-1.6512139e-05
-2.7949502e-05
-1.6444037e-05
-2.7033887e-05
-1.6368528e-05
-2.612307e-05
-1.6285707e-05
-2.5217394e-05
-1.619584e-05
-2.4317203e-05
-1.6099076e-05
-2.3422821e-05
-1.5995701e-05
-2.2534573e-05
-1.5885851e-05
-2.1652762e-05
-1.5769782e-05
-2.0777697e-05
-1.5647622e-05
-1.990967e-05
-1.5519619e-05
-1.904897e-05
-1.5385944e-05
-1.8195873e-05
-1.524676e-05
-1.7350661e-05
-1.510215e-05
-1.6513603e-05
-1.495227e-05
-1.5684968e-05
-1.4797195e-05
-1.4865023e-05
-1.4637027e-05
-1.405403e-05
-1.4471775e-05
-1.3252255e-05
-1.4301573e-05
-1.2459959e-05
-1.4126401e-05
-1.16774e-05
-1.3946499e-05
-1.0904852e-05
-1.3761429e-05
-1.0142576e-05
-1.3571605e-05
-9.3908633e-06
-1.337653e-05
-8.6499883e-06
-1.3176427e-05
-7.9202585e-06
-1.297078e-05
-7.2019744e-06
-1.2759817e-05
-6.495491e-06
-1.2542397e-05
-5.8011331e-06
-1.2319386e-05
-5.119305e-06
-1.2088986e-05
-4.4503907e-06
-1.1852151e-05
-3.7948802e-06
-1.1606063e-05
-3.1532235e-06
-1.1352638e-05
-2.5260356e-06
-1.1087611e-05
-1.9138634e-06
-1.0813734e-05
-1.3174929e-06
-1.052445e-05
-7.3760425e-07
-1.0224371e-05
-9.9037011e-06
-2.9648558e-05
-1.7469369e-05
-2.8695559e-05
-1.7397038e-05
-2.7747162e-05
-1.7316925e-05
-2.6803736e-05
-1.7229134e-05
-2.586564e-05
-1.7133936e-05
-2.4933221e-05
-1.7031496e-05
-2.4006819e-05
-1.6922103e-05
-2.3086762e-05
-1.6805907e-05
-2.2173375e-05
-1.6683169e-05
-2.1266967e-05
-1.6554029e-05
-2.0367846e-05
-1.641874e-05
-1.9476305e-05
-1.6277486e-05
-1.8592637e-05
-1.6130427e-05
-1.7717126e-05
-1.5977662e-05
-1.6850055e-05
-1.581934e-05
-1.5991702e-05
-1.5655549e-05
-1.5142339e-05
-1.548639e-05
-1.4302244e-05
-1.531187e-05
-1.3471684e-05
-1.5132133e-05
-1.2650936e-05
-1.4947149e-05
-1.1840263e-05
-1.4757172e-05
-1.1039952e-05
-1.456174e-05
-1.0250273e-05
-1.4361285e-05
-9.4715233e-06
-1.4155279e-05
-8.7039952e-06
-1.3943955e-05
-7.9480016e-06
-1.3726773e-05
-7.2038556e-06
-1.3503963e-05
-6.4719227e-06
-1.3274329e-05
-5.7525453e-06
-1.3038763e-05
-5.0461366e-06
-1.2795394e-05
-4.3530954e-06
-1.2545192e-05
-3.6739312e-06
-1.2285227e-05
-3.0091119e-06
-1.2017456e-05
-2.359267e-06
-1.1737456e-05
-1.7249709e-06
-1.144803e-05
-1.1070275e-06
-1.1142392e-05
-5.061459e-07
-1.0825252e-05
7.6585017e-08
-1.0486432e-05
-1.0133041e-05
-3.1427211e-05
-1.8528978e-05
-3.0435963e-05
-1.8460616e-05
-2.94491e-05
-1.8383901e-05
-2.8467006e-05
-1.8299019e-05
-2.7490062e-05
-1.8206078e-05
-2.6518636e-05
-1.8105362e-05
-2.5553087e-05
-1.7997046e-05
-2.4593768e-05
-1.7881422e-05
-2.3641018e-05
-1.7758658e-05
-2.269517e-05
-1.7629016e-05
-2.1756547e-05
-1.7492653e-05
-2.0825462e-05
-1.7349824e-05
-1.9902223e-05
-1.7200725e-05
-1.8987129e-05
-1.7045521e-05
-1.8080477e-05
-1.6884314e-05
-1.7182557e-05
-1.671726e-05
-1.6293658e-05
-1.6544448e-05
-1.5414061e-05
-1.6365988e-05
-1.4544053e-05
-1.6181877e-05
-1.3683914e-05
-1.5992273e-05
-1.2833924e-05
-1.5797139e-05
-1.1994362e-05
-1.5596734e-05
-1.116552e-05
-1.5390582e-05
-1.0347683e-05
-1.5179121e-05
-9.5411563e-06
-1.4961806e-05
-8.7462403e-06
-1.4738871e-05
-7.9632627e-06
-1.4509751e-05
-7.1925491e-06
-1.4274676e-05
-6.434472e-06
-1.4032406e-05
-5.6893911e-06
-1.3783843e-05
-4.957734e-06
-1.352705e-05
-4.2399173e-06
-1.3263009e-05
-3.5364599e-06
-1.2988684e-05
-2.8478502e-06
-1.2706066e-05
-2.1747426e-06
-1.2410563e-05
-1.5177284e-06
-1.2105044e-05
-8.7763718e-07
-1.1782483e-05
-2.5521075e-07
-1.1447678e-05
3.4839134e-07
-1.1090033e-05
9.3210076e-07
-1.071675e-05
-1.0312349e-05
-3.225773e-05
-1.9559336e-05
-3.12315e-05
-1.9486847e-05
-3.0209811e-05
-1.9405591e-05
-2.9193068e-05
-1.9315763e-05
-2.8181654e-05
-1.9217492e-05
-2.7175955e-05
-1.9111061e-05
-2.617634e-05
-1.8996661e-05
-2.5183172e-05
-1.8874589e-05
-2.4196806e-05
-1.8745024e-05
-2.3217578e-05
-1.8608245e-05
-2.2245827e-05
-1.8464403e-05
-2.1281877e-05
-1.8313774e-05
-2.0326043e-05
-1.8156558e-05
-1.9378638e-05
-1.7992926e-05
-1.8439967e-05
-1.7822985e-05
-1.7510331e-05
-1.7646896e-05
-1.6590024e-05
-1.7464755e-05
-1.5679346e-05
-1.7276666e-05
-1.4778585e-05
-1.7082638e-05
-1.3888035e-05
-1.6882823e-05
-1.3007986e-05
-1.6677188e-05
-1.2138725e-05
-1.6465994e-05
-1.1280557e-05
-1.6248751e-05
-1.0433777e-05
-1.6025902e-05
-9.5986952e-06
-1.5796888e-05
-8.7756328e-06
-1.5561933e-05
-7.9649202e-06
-1.5320463e-05
-7.1668997e-06
-1.5072697e-05
-6.3819598e-06
-1.4817345e-05
-5.6104681e-06
-1.4555335e-05
-4.8528671e-06
-1.428465e-05
-4.1095915e-06
-1.4006284e-05
-3.3811753e-06
-1.37171e-05
-2.668131e-06
-1.341911e-05
-1.9711218e-06
-1.3107572e-05
-1.2907768e-06
-1.2785388e-05
-6.279368e-07
-1.2445322e-05
1.6599118e-08
-1.2092213e-05
6.4160096e-07
-1.1715035e-05
1.2459946e-06
-1.1321143e-05
-1.0894806e-05
-3.4163491e-05
-2.0693155e-05
-3.3096996e-05
-2.0625831e-05
-3.2034783e-05
-2.0549059e-05
-3.0977277e-05
-2.0463098e-05
-2.9924888e-05
-2.0368151e-05
-2.8878021e-05
-2.0264359e-05
-2.7837068e-05
-2.0152015e-05
-2.680241e-05
-2.0031319e-05
-2.5774429e-05
-1.990257e-05
-2.4753481e-05
-1.9765973e-05
-2.3739924e-05
-1.9621802e-05
-2.27341e-05
-1.9470227e-05
-2.1736347e-05
-1.9311526e-05
-2.0746991e-05
-1.9145915e-05
-1.9766354e-05
-1.8973564e-05
-1.8794752e-05
-1.8794587e-05
-1.7832495e-05
-1.8609153e-05
-1.6879891e-05
-1.8417359e-05
-1.5937245e-05
-1.8219313e-05
-1.500486e-05
-1.8015023e-05
-1.4083037e-05
-1.7804646e-05
-1.3172078e-05
-1.7588148e-05
-1.227228e-05
-1.7365792e-05
-1.1383957e-05
-1.7137074e-05
-1.0507412e-05
-1.6902447e-05
-9.6429782e-06
-1.6661321e-05
-8.7909738e-06
-1.6413938e-05
-7.9517526e-06
-1.6159684e-05
-7.1256629e-06
-1.5898786e-05
-6.313105e-06
-1.5629903e-05
-5.5144651e-06
-1.5353975e-05
-4.7301995e-06
-1.5068915e-05
-3.960759e-06
-1.4775725e-05
-3.2066925e-06
-1.4471166e-05
-2.4685356e-06
-1.4157266e-05
-1.7469729e-06
-1.3829134e-05
-1.0426523e-06
-1.3489708e-05
-3.5644311e-07
-1.3131531e-05
3.1076711e-07
-1.2759423e-05
9.5772258e-07
-1.236199e-05
1.5833694e-06
-1.194679e-05
2.1863753e-06
-1.1497811e-05
-1.1027097e-05
-3.6155887e-05
-2.1861953e-05
-3.5048227e-05
-2.1800814e-05
-3.3944556e-05
-2.1729503e-05
-3.284532e-05
-2.1648295e-05
-3.1750962e-05
-2.1557456e-05
-3.06619e-05
-2.1457213e-05
-2.9578554e-05
-2.1347706e-05
-2.850133e-05
-2.1229239e-05
-2.7430624e-05
-2.1102026e-05
-2.6366821e-05
-2.0966373e-05
-2.5310299e-05
-2.0822495e-05
-2.426142e-05
-2.0670681e-05
-2.3220542e-05
-2.0511105e-05
-2.2188015e-05
-2.0344053e-05
-2.1164171e-05
-2.0169759e-05
-2.0149346e-05
-1.9988388e-05
-1.9143868e-05
-1.9800065e-05
-1.8148053e-05
-1.9604968e-05
-1.7162226e-05
-1.9403185e-05
-1.6186698e-05
-1.9194841e-05
-1.5221783e-05
-1.8979939e-05
-1.4267795e-05
-1.8758634e-05
-1.3325042e-05
-1.8530901e-05
-1.2393835e-05
-1.8296999e-05
-1.14745e-05
-1.8056409e-05
-1.0567351e-05
-1.7809595e-05
-9.6727255e-06
-1.7555947e-05
-8.7909622e-06
-1.7295701e-05
-7.9224217e-06
-1.7028224e-05
-7.0674701e-06
-1.6753738e-05
-6.2265159e-06
-1.6470857e-05
-5.3999668e-06
-1.6180523e-05
-4.588287e-06
-1.5880594e-05
-3.7919509e-06
-1.5572061e-05
-3.0115209e-06
-1.5251596e-05
-2.2475521e-06
-1.4921235e-05
-1.5007484e-06
-1.4575938e-05
-7.7179312e-07
-1.4218663e-05
-6.1587632e-08
-1.3841735e-05
6.2889157e-07
-1.3449902e-05
1.2983895e-06
-1.3031488e-05
1.9458771e-06
-1.2594277e-05
2.569998e-06
-1.2121932e-05
3.1694549e-06
-1.1626553e-05
-1.108421e-05
-3.7087831e-05
-2.3011679e-05
-3.5941766e-05
-2.2946879e-05
-3.4799837e-05
-2.2871432e-05
-3.3662504e-05
-2.2785628e-05
-3.2530218e-05
-2.2689742e-05
-3.1403419e-05
-2.2584012e-05
-3.0282536e-05
-2.246859e-05
-2.9167989e-05
-2.2343786e-05
-2.8060184e-05
-2.2209832e-05
-2.6959522e-05
-2.2067035e-05
-2.5866391e-05
-2.1915627e-05
-2.4781166e-05
-2.1755906e-05
-2.3704219e-05
-2.1588052e-05
-2.2635906e-05
-2.1412365e-05
-2.1576578e-05
-2.1229088e-05
-2.0526577e-05
-2.1038389e-05
-1.9486241e-05
-2.0840401e-05
-1.8455906e-05
-2.0635304e-05
-1.7435896e-05
-2.0423196e-05
-1.6426537e-05
-2.02042e-05
-1.5428156e-05
-1.9978321e-05
-1.4441073e-05
-1.9745717e-05
-1.3465616e-05
-1.9506358e-05
-1.2502098e-05
-1.9260517e-05
-1.155086e-05
-1.9007648e-05
-1.0612225e-05
-1.874823e-05
-9.6865476e-06
-1.8481624e-05
-8.7741782e-06
-1.820807e-05
-7.8754852e-06
-1.7926917e-05
-6.9908494e-06
-1.7638374e-05
-6.1206974e-06
-1.7341008e-05
-5.2654435e-06
-1.7035777e-05
-4.4255767e-06
-1.6720461e-05
-3.601584e-06
-1.6396054e-05
-2.7940471e-06
-1.6059133e-05
-2.0035432e-06
-1.5711738e-05
-1.2307994e-06
-1.5348681e-05
-4.7651925e-07
-1.4972943e-05
2.5831793e-07
-1.4576572e-05
9.726752e-07
-1.4164259e-05
1.6653405e-06
-1.3724153e-05
2.3352764e-06
-1.3264213e-05
2.9810982e-06
-1.2767753e-05
3.601454e-06
-1.2246908e-05
-1.1677258e-05
-3.9218438e-05
-2.425816e-05
-3.8029048e-05
-2.420107e-05
-3.6843456e-05
-2.4132471e-05
-3.5662149e-05
-2.4052739e-05
-3.4485605e-05
-2.3962172e-05
-3.3314285e-05
-2.3861063e-05
-3.2148644e-05
-2.3749653e-05
-3.0989127e-05
-2.3628108e-05
-2.9836159e-05
-2.3496753e-05
-2.8690174e-05
-2.3355818e-05
-2.7551576e-05
-2.3205633e-05
-2.6420767e-05
-2.3046436e-05
-2.5298138e-05
-2.2878535e-05
-2.4184071e-05
-2.270212e-05
-2.3078932e-05
-2.2517503e-05
-2.1983087e-05
-2.2324933e-05
-2.0896885e-05
-2.212459e-05
-1.9820681e-05
-2.1916606e-05
-1.8754815e-05
-2.170117e-05
-1.7699629e-05
-2.1478382e-05
-1.6655461e-05
-2.1248367e-05
-1.5622644e-05
-2.1011139e-05
-1.4601514e-05
-2.0766847e-05
-1.3592404e-05
-2.0515469e-05
-1.2595644e-05
-2.0257276e-05
-1.1611582e-05
-1.999171e-05
-1.0640562e-05
-1.971925e-05
-9.6829393e-06
-1.9439247e-05
-8.7390832e-06
-1.9151926e-05
-7.8093734e-06
-1.8856626e-05
-6.8942048e-06
-1.8553542e-05
-5.9940184e-06
-1.8241194e-05
-5.1092486e-06
-1.7920547e-05
-4.2403924e-06
-1.7589316e-05
-3.3879603e-06
-1.7248486e-05
-2.5525501e-06
-1.6894543e-05
-1.7347643e-06
-1.6529524e-05
-9.3534512e-07
-1.61481e-05
-1.5504437e-07
-1.5753243e-05
6.050741e-07
-1.533669e-05
1.3439542e-06
-1.4903139e-05
2.0604368e-06
-1.4440636e-05
2.7534492e-06
-1.3957225e-05
3.4215777e-06
-1.3435881e-05
4.0634151e-06
-1.2888745e-05
4.6770887e-06
-1.2290931e-05
-1.1660534e-05
-4.0209018e-05
-2.5491797e-05
-3.89788e-05
-2.5431288e-05
-3.7752519e-05
-2.5358751e-05
-3.6530679e-05
-2.527458e-05
-3.5313767e-05
-2.5179084e-05
-3.4102266e-05
-2.5072564e-05
-3.2896642e-05
-2.4955277e-05
-3.1697353e-05
-2.4827397e-05
-3.0504846e-05
-2.468926e-05
-2.9319557e-05
-2.4541108e-05
-2.8141911e-05
-2.4383278e-05
-2.6972323e-05
-2.4216025e-05
-2.5811193e-05
-2.4039665e-05
-2.4658916e-05
-2.3854397e-05
-2.3515875e-05
-2.3660544e-05
-2.238244e-05
-2.3458368e-05
-2.1258985e-05
-2.3248045e-05
-2.0145861e-05
-2.302973e-05
-1.9043432e-05
-2.2803599e-05
-1.7952049e-05
-2.2569766e-05
-1.6872053e-05
-2.2328364e-05
-1.5803799e-05
-2.2079393e-05
-1.474763e-05
-2.1823016e-05
-1.3703892e-05
-2.1559208e-05
-1.2672926e-05
-2.1288242e-05
-1.1655094e-05
-2.1009542e-05
-1.0650747e-05
-2.0723598e-05
-9.6602589e-06
-2.0429735e-05
-8.6840049e-06
-2.012818e-05
-7.7223868e-06
-1.9818244e-05
-6.7758113e-06
-1.9500117e-05
-5.8447305e-06
-1.9172275e-05
-4.9295967e-06
-1.883568e-05
-4.0309263e-06
-1.8487987e-05
-3.149246e-06
-1.8130166e-05
-2.2851717e-06
-1.7758617e-05
-1.4393294e-06
-1.7375366e-05
-6.1248356e-07
-1.6974945e-05
1.9453552e-07
-1.6560262e-05
9.8060545e-07
-1.612276e-05
1.7446926e-06
-1.5667225e-05
2.4856649e-06
-1.5181608e-05
3.2024023e-06
-1.4673962e-05
3.8934649e-06
-1.4126943e-05
4.5573857e-06
-1.3552666e-05
5.1922624e-06
-1.2925807e-05
-1.2264436e-05
-4.2484269e-05
-2.6818719e-05
-4.1208469e-05
-2.6767596e-05
-3.9936216e-05
-2.6703541e-05
-3.8668046e-05
-2.6626922e-05
-3.7404476e-05
-2.6538151e-05
-3.6146004e-05
-2.6437555e-05
-3.4893136e-05
-2.6325433e-05
-3.3646352e-05
-2.6202061e-05
-3.2406118e-05
-2.6067631e-05
-3.1172905e-05
-2.5922474e-05
-2.9947156e-05
-2.5766858e-05
-2.8729313e-05
-2.5601122e-05
-2.7519802e-05
-2.5425535e-05
-2.6319039e-05
-2.5240428e-05
-2.5127432e-05
-2.5046004e-05
-2.3945374e-05
-2.4842601e-05
-2.2773251e-05
-2.4630492e-05
-2.1611444e-05
-2.4409853e-05
-2.0460326e-05
-2.4180847e-05
-1.9320263e-05
-2.3943663e-05
-1.8191616e-05
-2.3698412e-05
-1.7074754e-05
-2.3445226e-05
-1.5970028e-05
-2.318412e-05
-1.4877799e-05
-2.2915245e-05
-1.3798424e-05
-2.2638583e-05
-1.2732258e-05
-2.2354408e-05
-1.1679672e-05
-2.2062128e-05
-1.0641033e-05
-2.1762237e-05
-9.6167264e-06
-2.1454042e-05
-8.6071465e-06
-2.113776e-05
-7.6126986e-06
-2.0812692e-05
-6.6338096e-06
-2.0479006e-05
-5.6709466e-06
-2.0135137e-05
-4.724579e-06
-1.9782047e-05
-3.7952392e-06
-1.9417326e-05
-2.8834749e-06
-1.9041931e-05
-1.9899199e-06
-1.8652172e-05
-1.1152241e-06
-1.8250062e-05
-2.6018504e-07
-1.7829984e-05
5.7426455e-07
-1.7394711e-05
1.3869878e-06
-1.6935482e-05
2.1769946e-06
-1.6457232e-05
2.9431501e-06
-1.5947763e-05
3.6842801e-06
-1.5415092e-05
4.3989227e-06
-1.4841585e-05
5.0855487e-06
-1.4239292e-05
5.7422256e-06
-1.3582484e-05
6.3669487e-06
-1.2889158e-05
-1.212217e-05
-4.4857345e-05
-2.8181207e-05
-4.3535028e-05
-2.8141036e-05
-4.2215816e-05
-2.8086808e-05
-4.0900286e-05
-2.8019071e-05
-3.9588984e-05
-2.7938224e-05
-3.8282444e-05
-2.7844692e-05
-3.6981189e-05
-2.773881e-05
-3.5685731e-05
-2.7620892e-05
-3.4396564e-05
-2.7491228e-05
-3.3114183e-05
-2.7350012e-05
-3.1839056e-05
-2.7197602e-05
-3.057165e-05
-2.7034264e-05
-2.9312424e-05
-2.6860348e-05
-2.8061815e-05
-2.6676144e-05
-2.6820253e-05
-2.6481991e-05
-2.5588153e-05
-2.6278104e-05
-2.4365933e-05
-2.6064822e-05
-2.3153984e-05
-2.5842441e-05
-2.1952701e-05
-2.5611136e-05
-2.0762466e-05
-2.5371081e-05
-1.9583665e-05
-2.5122465e-05
-1.8416671e-05
-2.4865407e-05
-1.7261854e-05
-2.4600043e-05
-1.611959e-05
-2.4326384e-05
-1.4990249e-05
-2.4044587e-05
-1.3874197e-05
-2.3754635e-05
-1.2771807e-05
-2.3456798e-05
-1.1683459e-05
-2.3150476e-05
-1.060953e-05
-2.2836166e-05
-9.5504244e-06
-2.2513148e-05
-8.5065453e-06
-2.2181639e-05
-7.4783209e-06
-2.1840916e-05
-6.4661867e-06
-2.149114e-05
-5.4706244e-06
-2.1130699e-05
-4.4921267e-06
-2.0760545e-05
-3.5312388e-06
-2.0378214e-05
-2.5885323e-06
-1.9984637e-05
-1.664656e-06
-1.9576049e-05
-7.6028424e-07
-1.9154434e-05
1.2371522e-07
-1.8713983e-05
9.8632661e-07
-1.8257322e-05
1.8264477e-06
-1.7775603e-05
2.6431125e-06
-1.7273896e-05
3.4351591e-06
-1.673981e-05
4.2013741e-06
-1.6181307e-05
4.9402584e-06
-1.558047e-05
5.6502284e-06
-1.4949261e-05
6.3293193e-06
-1.4261575e-05
6.9754543e-06
-1.3535293e-05
-1.2732758e-05
-4.5960984e-05
-2.9550963e-05
-4.4593849e-05
-2.9508171e-05
-4.3229944e-05
-2.9450713e-05
-4.1869846e-05
-2.9379169e-05
-4.0514133e-05
-2.9293937e-05
-3.9163352e-05
-2.9195473e-05
-3.7818042e-05
-2.908412e-05
-3.647873e-05
-2.8960205e-05
-3.5145929e-05
-2.8824029e-05
-3.3820143e-05
-2.86758e-05
-3.2501866e-05
-2.8515879e-05
-3.1191576e-05
-2.8344554e-05
-2.9889742e-05
-2.8162182e-05
-2.8596821e-05
-2.7969066e-05
-2.7313249e-05
-2.7765563e-05
-2.6039471e-05
-2.7551881e-05
-2.4775898e-05
-2.7328394e-05
-2.3522949e-05
-2.709539e-05
-2.2281026e-05
-2.6853058e-05
-2.105053e-05
-2.6601578e-05
-1.9831851e-05
-2.6341143e-05
-1.8625381e-05
-2.6071877e-05
-1.7431503e-05
-2.5793922e-05
-1.6250601e-05
-2.5507286e-05
-1.5083057e-05
-2.5212131e-05
-1.3929258e-05
-2.4908434e-05
-1.2789583e-05
-2.4596473e-05
-1.1664425e-05
-2.4275634e-05
-1.0554185e-05
-2.3946405e-05
-9.4592683e-06
-2.3608065e-05
-8.3800996e-06
-2.3260808e-05
-7.3171179e-06
-2.2903898e-05
-6.2707786e-06
-2.253748e-05
-5.2415777e-06
-2.21599e-05
-4.2300231e-06
-2.1772099e-05
-3.2366815e-06
-2.1371555e-05
-2.2621418e-06
-2.0959177e-05
-1.3070777e-06
-2.0531112e-05
-3.7219444e-07
-2.0089317e-05
5.4154027e-07
-1.9627718e-05
1.4330726e-06
-1.9148854e-05
2.3013685e-06
-1.8643899e-05
3.145449e-06
-1.8117977e-05
3.9641223e-06
-1.7558483e-05
4.756128e-06
-1.6973312e-05
5.5199404e-06
-1.6344281e-05
6.2539137e-06
-1.5683235e-05
6.9560525e-06
-1.4963713e-05
7.6242013e-06
-1.4203441e-05
-1.3364299e-05
-4.8488787e-05
-3.0996693e-05
-4.7072781e-05
-3.0966969e-05
-4.5659493e-05
-3.0921459e-05
-4.4249554e-05
-3.0860653e-05
-4.2843574e-05
-3.0785149e-05
-4.1442128e-05
-3.0695383e-05
-4.004579e-05
-3.0591811e-05
-3.8655115e-05
-3.0474795e-05
-3.7270646e-05
-3.0344675e-05
-3.5892917e-05
-3.0201757e-05
-3.4522443e-05
-3.0046274e-05
-3.3159737e-05
-2.9878585e-05
-3.1805293e-05
-2.9698999e-05
-3.0459589e-05
-2.9507886e-05
-2.9123099e-05
-2.9305556e-05
-2.7796287e-05
-2.9092376e-05
-2.6479586e-05
-2.8868582e-05
-2.5173451e-05
-2.863453e-05
-2.3878289e-05
-2.8390552e-05
-2.259453e-05
-2.8136818e-05
-2.1322584e-05
-2.7873524e-05
-2.0062854e-05
-2.7600873e-05
-1.8815745e-05
-2.7318986e-05
-1.7581658e-05
-2.702801e-05
-1.6360987e-05
-2.6727958e-05
-1.5154129e-05
-2.6418989e-05
-1.3961476e-05
-2.6101087e-05
-1.2783426e-05
-2.5774523e-05
-1.1620392e-05
-2.5438668e-05
-1.0472777e-05
-2.509402e-05
-9.3410137e-06
-2.4739829e-05
-8.2255299e-06
-2.4376292e-05
-7.1267836e-06
-2.4002644e-05
-6.0452474e-06
-2.3619016e-05
-4.9814365e-06
-2.3223711e-05
-3.9358728e-06
-2.2817662e-05
-2.9091464e-06
-2.2398281e-05
-1.9018682e-06
-2.1966456e-05
-9.1472259e-07
-2.1518258e-05
5.1511267e-08
-2.1055551e-05
9.9577699e-07
-2.0571983e-05
1.9170357e-06
-2.0070112e-05
2.8143083e-06
-1.9541171e-05
3.6865775e-06
-1.8990246e-05
4.5326302e-06
-1.8404536e-05
5.3511575e-06
-1.7791839e-05
6.1406008e-06
-1.7133724e-05
6.8992567e-06
-1.644189e-05
7.6250938e-06
-1.568955e-05
8.3158815e-06
-1.4894229e-05
-1.4017383e-05
-4.9654996e-05
-3.2462492e-05
-4.8191357e-05
-3.2430609e-05
-4.6730547e-05
-3.2382269e-05
-4.527321e-05
-3.231799e-05
-4.3819969e-05
-3.223839e-05
-4.2371432e-05
-3.2143921e-05
-4.0928184e-05
-3.203506e-05
-3.9490793e-05
-3.1912185e-05
-3.8059831e-05
-3.1775637e-05
-3.6635838e-05
-3.1625751e-05
-3.5219353e-05
-3.146276e-05
-3.3810896e-05
-3.1287042e-05
-3.2410984e-05
-3.1098912e-05
-3.1020114e-05
-3.0898756e-05
-2.9638773e-05
-3.0686898e-05
-2.8267428e-05
-3.0463721e-05
-2.690655e-05
-3.022946e-05
-2.5556582e-05
-2.9984498e-05
-2.4217971e-05
-2.9729163e-05
-2.2891141e-05
-2.9463649e-05
-2.1576524e-05
-2.9188141e-05
-2.027454e-05
-2.8902858e-05
-1.8985603e-05
-2.8607923e-05
-1.7710122e-05
-2.8303491e-05
-1.644851e-05
-2.7989569e-05
-1.5201183e-05
-2.7666317e-05
-1.3968548e-05
-2.7333722e-05
-1.2751003e-05
-2.6992068e-05
-1.1548985e-05
-2.6640687e-05
-1.0362912e-05
-2.6280094e-05
-9.1932197e-06
-2.5909521e-05
-8.0403697e-06
-2.5529142e-05
-6.9048265e-06
-2.5138187e-05
-5.7870809e-06
-2.4736762e-05
-4.6876608e-06
-2.4323131e-05
-3.60711e-06
-2.3898213e-05
-2.5460401e-06
-2.3459351e-05
-1.50508e-06
-2.3007416e-05
-4.84943e-07
-2.2538395e-05
5.1348087e-07
-2.2053974e-05
1.4890915e-06
-2.1547594e-05
2.44092e-06
-2.102194e-05
3.3679945e-06
-2.0468245e-05
4.2692561e-06
-1.9891507e-05
5.1434657e-06
-1.9278746e-05
5.9892621e-06
-1.8637636e-05
6.8050585e-06
-1.794952e-05
7.5890901e-06
-1.7225922e-05
8.339293e-06
-1.6439753e-05
9.0533633e-06
-1.5608299e-05
9.7286084e-06
-1.4692628e-05
-1.3718373e-05
-5.2342795e-05
-3.3993747e-05
-5.0827849e-05
-3.3977438e-05
-4.9315156e-05
-3.3943301e-05
-4.7805405e-05
-3.3892021e-05
-4.6299255e-05
-3.382414e-05
-4.4797354e-05
-3.3740291e-05
-4.3300321e-05
-3.3640954e-05
-4.1808767e-05
-3.3526614e-05
-4.0323278e-05
-3.3397674e-05
-3.8844434e-05
-3.3254482e-05
-3.7372802e-05
-3.3097382e-05
-3.5908937e-05
-3.2926625e-05
-3.445338e-05
-3.27426e-05
-3.3006653e-05
-3.2545639e-05
-3.1569277e-05
-3.2336132e-05
-3.0141755e-05
-3.211442e-05
-2.8724567e-05
-3.1880909e-05
-2.73182e-05
-3.1635827e-05
-2.5923116e-05
-3.1379582e-05
-2.4539764e-05
-3.1112515e-05
-2.3168598e-05
-3.0834814e-05
-2.1810054e-05
-3.0546685e-05
-2.0464567e-05
-3.0248346e-05
-1.9132571e-05
-2.9939919e-05
-1.7814489e-05
-2.9621574e-05
-1.6510745e-05
-2.9293314e-05
-1.5221762e-05
-2.89553e-05
-1.3947964e-05
-2.8607521e-05
-1.2689779e-05
-2.8250253e-05
-1.1447638e-05
-2.7882828e-05
-1.0221983e-05
-2.7505749e-05
-9.0132715e-06
-2.7118232e-05
-7.8219677e-06
-2.6720445e-05
-6.6485627e-06
-2.6311592e-05
-5.4935577e-06
-2.5891766e-05
-4.3575033e-06
-2.5459185e-05
-3.2409647e-06
-2.5014751e-05
-2.1445635e-06
-2.4555752e-05
-1.0689644e-06
-2.4083015e-05
-1.4922236e-08
-2.3592437e-05
1.0165478e-06
-2.3085444e-05
2.0243723e-06
-2.2555418e-05
3.0076441e-06
-2.2005212e-05
3.9653637e-06
-2.1425965e-05
4.8964364e-06
-2.082258e-05
5.7995935e-06
-2.0181902e-05
6.6734262e-06
-1.9511468e-05
7.5163206e-06
-1.8792415e-05
8.3264429e-06
-1.8036044e-05
9.1017008e-06
-1.7215011e-05
9.8397087e-06
-1.6346306e-05
1.0537743e-05
-1.5390662e-05
-1.4373337e-05
-5.3571178e-05
-3.5560905e-05
-5.2005631e-05
-3.5542985e-05
-5.0442425e-05
-3.5506507e-05
-4.8882268e-05
-3.5452179e-05
-4.7325852e-05
-3.5380555e-05
-4.577384e-05
-3.5292304e-05
-4.4226871e-05
-3.5187923e-05
-4.2685568e-05
-3.5067917e-05
-4.1150549e-05
-3.4932694e-05
-3.9622409e-05
-3.4782622e-05
-3.8101724e-05
-3.4618068e-05
-3.6589075e-05
-3.4439274e-05
-3.5085015e-05
-3.424666e-05
-3.3590091e-05
-3.4040564e-05
-3.2104835e-05
-3.3821388e-05
-3.062976e-05
-3.3589496e-05
-2.916538e-05
-3.3345288e-05
-2.7712177e-05
-3.3089031e-05
-2.6270641e-05
-3.2821118e-05
-2.4841234e-05
-3.2541922e-05
-2.3424422e-05
-3.2251626e-05
-2.2020662e-05
-3.1950446e-05
-2.0630403e-05
-3.1638604e-05
-1.925408e-05
-3.1316242e-05
-1.7892143e-05
-3.0983511e-05
-1.6545025e-05
-3.0640433e-05
-1.5213173e-05
-3.0287152e-05
-1.389702e-05
-2.9923674e-05
-1.2597003e-05
-2.955027e-05
-1.1313576e-05
-2.9166254e-05
-1.0047194e-05
-2.8772131e-05
-8.7983266e-06
-2.83671e-05
-7.5674605e-06
-2.7951311e-05
-6.3550956e-06
-2.7523957e-05
-5.1617647e-06
-2.7085097e-05
-3.9880181e-06
-2.6632931e-05
-2.8344554e-06
-2.6168314e-05
-1.7017137e-06
-2.5688493e-05
-5.9048466e-07
-2.5194244e-05
4.9836213e-07
-2.4681284e-05
1.5637624e-06
-2.4150845e-05
2.6047131e-06
-2.3596369e-05
3.6203163e-06
-2.3020815e-05
4.6095492e-06
-2.2415197e-05
5.5712729e-06
-2.1784304e-05
6.5041942e-06
-2.1114824e-05
7.4068568e-06
-2.0414131e-05
8.2776071e-06
-1.9663165e-05
9.1145537e-06
-1.8872991e-05
9.9155683e-06
-1.8016026e-05
1.067819e-05
-1.7108928e-05
1.139966e-05
-1.6112133e-05
1.2076791e-05
-1.5050468e-05
-1.3867433e-05
-5.6423414e-05
-3.7179973e-05
-5.4804067e-05
-3.7180252e-05
-5.3186397e-05
-3.7160656e-05
-5.1571171e-05
-3.7121733e-05
-4.9959117e-05
-3.7064232e-05
-4.8350939e-05
-3.6988734e-05
-4.6747318e-05
-3.6895925e-05
-4.5148927e-05
-3.6786314e-05
-4.3556407e-05
-3.6660438e-05
-4.1970384e-05
-3.6518716e-05
-4.0391475e-05
-3.6361531e-05
-3.8820287e-05
-3.6189256e-05
-3.7257406e-05
-3.6002156e-05
-3.5703406e-05
-3.5800659e-05
-3.4158857e-05
-3.5585113e-05
-3.2624304e-05
-3.5355942e-05
-3.1100281e-05
-3.5113519e-05
-2.9587305e-05
-3.4858264e-05
-2.8085896e-05
-3.459044e-05
-2.6596538e-05
-3.4310476e-05
-2.5119722e-05
-3.4018739e-05
-2.3655927e-05
-3.3715421e-05
-2.2205621e-05
-3.3400752e-05
-2.0769264e-05
-3.3074962e-05
-1.9347323e-05
-3.2738183e-05
-1.7940246e-05
-3.2390588e-05
-1.6548498e-05
-3.2032181e-05
-1.5172524e-05
-3.1663126e-05
-1.3812775e-05
-3.1283423e-05
-1.2469711e-05
-3.0893334e-05
-1.1143799e-05
-3.0492167e-05
-9.8355073e-06
-3.0080423e-05
-8.5453207e-06
-2.9657286e-05
-7.2737483e-06
-2.9222884e-05
-6.0213068e-06
-2.8776399e-05
-4.7885376e-06
-2.8317866e-05
-3.5760249e-06
-2.7845444e-05
-2.3843785e-06
-2.735996e-05
-1.2142665e-06
-2.6858605e-05
-6.6418745e-08
-2.6342092e-05
1.0581596e-06
-2.5805862e-05
2.1584115e-06
-2.5251097e-05
3.2334311e-06
-2.4671388e-05
4.2822785e-06
-2.4069662e-05
5.3039185e-06
-2.3436837e-05
6.2971546e-06
-2.277754e-05
7.260678e-06
-2.2078347e-05
8.1929698e-06
-2.1346422e-05
9.0923574e-06
-2.0562552e-05
9.95688e-06
-1.9737514e-05
1.0784376e-05
-1.8843521e-05
1.1572302e-05
-1.7896854e-05
1.2317874e-05
-1.6857704e-05
1.3017804e-05
-1.5750397e-05
1.3668504e-05
-1.4518133e-05
1.4265769e-05
-1.3197154e-05
-1.1707225e-05
-5.7712427e-05
-3.8854006e-05
-5.6039329e-05
-3.885335e-05
-5.4367992e-05
-3.8831992e-05
-5.2699193e-05
-3.8790532e-05
-5.1033688e-05
-3.8729738e-05
-4.9372204e-05
-3.8650218e-05
-4.7715451e-05
-3.8552678e-05
-4.6064108e-05
-3.8437657e-05
-4.4418848e-05
-3.8305699e-05
-4.2780307e-05
-3.8157256e-05
-4.1149131e-05
-3.7992708e-05
-3.9525942e-05
-3.7812445e-05
-3.7911342e-05
-3.7616756e-05
-3.630593e-05
-3.7406071e-05
-3.4710288e-05
-3.7180757e-05
-3.3124983e-05
-3.6941246e-05
-3.1550563e-05
-3.668794e-05
-2.9987569e-05
-3.6421258e-05
-2.8436524e-05
-3.6141485e-05
-2.6897941e-05
-3.5849059e-05
-2.5372325e-05
-3.5544354e-05
-2.3860162e-05
-3.5227584e-05
-2.2361944e-05
-3.4898971e-05
-2.0878151e-05
-3.4558754e-05
-1.9409254e-05
-3.4207081e-05
-1.7955729e-05
-3.3844113e-05
-1.6518037e-05
-3.3469873e-05
-1.5096655e-05
-3.3084509e-05
-1.3692052e-05
-3.2688026e-05
-1.2304689e-05
-3.2280697e-05
-1.0935058e-05
-3.1861799e-05
-9.5836434e-06
-3.1431837e-05
-8.2509519e-06
-3.0989978e-05
-6.9374981e-06
-3.0536338e-05
-5.6438279e-06
-3.0070069e-05
-4.3704974e-06
-2.9591197e-05
-3.1181075e-06
-2.9097834e-05
-1.8872898e-06
-2.8590778e-05
-6.7873022e-07
-2.8067165e-05
5.0670153e-07
-2.7527524e-05
1.6679529e-06
-2.6967113e-05
2.8040448e-06
-2.6387188e-05
3.9140885e-06
-2.5781431e-05
4.9971259e-06
-2.5152699e-05
6.0520709e-06
-2.4491782e-05
7.0777076e-06
-2.3803177e-05
8.0726837e-06
-2.3073324e-05
9.0354401e-06
-2.2309179e-05
9.9642621e-06
-2.1491374e-05
1.0857129e-05
-2.063038e-05
1.1711841e-05
-1.9698234e-05
1.2525786e-05
-1.8710799e-05
1.3296136e-05
-1.7628054e-05
1.4019512e-05
-1.6473773e-05
1.4692305e-05
-1.5190926e-05
1.5310191e-05
-1.381504e-05
-1.2265659e-05
-5.9003025e-05
-4.0583449e-05
-5.7274584e-05
-4.0581792e-05
-5.5547976e-05
-4.05586e-05
-5.3824015e-05
-4.0514493e-05
-5.210347e-05
-4.0450284e-05
-5.0387101e-05
-4.0366587e-05
-4.867563e-05
-4.0264149e-05
-4.696977e-05
-4.0143517e-05
-4.5270198e-05
-4.0005271e-05
-4.3577592e-05
-3.9849863e-05
-4.1892604e-05
-3.9677695e-05
-4.0215871e-05
-3.9489179e-05
-3.8548026e-05
-3.9284601e-05
-3.688969e-05
-3.9064407e-05
-3.5241448e-05
-3.8829e-05
-3.3603893e-05
-3.8578801e-05
-3.1977596e-05
-3.8314237e-05
-3.0363106e-05