y,U_0,U_1,U_2
0,0,0,0
0.00048240845,-0.0021428349,-7.7688012e-07,5.0580438e-24
0.00098049384,-0.0042679174,-2.3104097e-06,4.2299431e-24
0.0014947656,-0.0063871736,-5.2545389e-06,-4.2492247e-25
0.0020257498,-0.0084953408,-9.640304e-06,-2.5225313e-24
0.0025739895,-0.010586782,-1.5496353e-05,-2.217216e-25
0.0031400454,-0.012655282,-2.2947722e-05,-4.2577286e-24
0.0037244966,-0.014693938,-3.2118035e-05,-9.4740551e-24
0.0043279408,-0.016695017,-4.3134793e-05,-2.7194378e-24
0.0049509953,-0.01864977,-5.6131213e-05,4.3388314e-24
0.0055942973,-0.020548194,-7.12455e-05,4.3304363e-24
0.0062585048,-0.022378776,-8.8620106e-05,-4.2068506e-24
0.0069442972,-0.024128238,-0.00010840032,-1.622424e-23
0.007652376,-0.02578137,-0.00013073112,-1.8536636e-24
0.0083834654,-0.027321082,-0.00015575429,3.0570799e-25
0.0091383131,-0.028728859,-0.00018360399,5.2521917e-24
0.0099176913,-0.029985842,-0.00021440078,3.1872408e-24
0.010722397,-0.031074645,-0.00024824606,-7.0576849e-24
0.011553254,-0.031981761,-0.00028521637,-5.9152172e-24
0.012411111,-0.032700039,-0.00032535964,3.9266819e-24
0.013296846,-0.033230371,-0.00036869577,7.8340129e-24
0.014211364,-0.033581856,-0.00041522161,-3.3517165e-24
0.015155603,-0.033770292,-0.000464919,2.0017113e-23
0.016130526,-0.033815558,-0.00051776369,1.6331741e-23
0.017137132,-0.033738823,-0.0005737327,-2.0488091e-24
0.018176449,-0.033560311,-0.00063280919,1.501621e-24
0.019249542,-0.033297956,-0.00069498496,1.5337766e-23
0.020357507,-0.032966843,-0.00076026185,1.647495e-23
0.021501477,-0.032579209,-0.00082865197,1.2859484e-23
0.022682624,-0.032144736,-0.0009001775,1.0691643e-23
0.023902154,-0.031670949,-0.00097487029,8.8390889e-24
0.025161316,-0.031163636,-0.0010527712,6.8265115e-24
0.026461397,-0.030627198,-0.0011339294,-6.2202204e-24
0.027803728,-0.030064964,-0.0012184018,2.3106521e-24
0.02918968,-0.029479422,-0.0013062525,4.4802031e-24
0.030620672,-0.028872412,-0.0013975521,9.9405663e-24
0.032098167,-0.028245267,-0.0014923775,1.183911e-23
0.033623676,-0.027598926,-0.0015908111,1.6526244e-24
0.03519876,-0.026934019,-0.0016929412,4.5740482e-24
0.03682503,-0.026250925,-0.0017988609,7.0083864e-24
0.03850415,-0.025549829,-0.0019086685,1.0357582e-23
0.040237836,-0.02483075,-0.0020224673,-2.3306952e-24
0.042027862,-0.024093576,-0.002140365,-1.1082136e-23
0.043876059,-0.023338085,-0.0022624742,3.2969981e-24
0.045784317,-0.022563957,-0.0023889121,9.262226e-24
0.047754588,-0.021770791,-0.0025198002,-4.3197582e-24
0.049788888,-0.02095811,-0.0026552647,-4.8490066e-24
0.051889297,-0.020125376,-0.002795436,-1.8880735e-23
0.054057963,-0.019271984,-0.0029404493,-3.2306454e-23
0.056297104,-0.018397277,-0.0030904441,-4.763728e-24
0.058609012,-0.01750054,-0.0032455643,1.2913853e-23
0.06099605,-0.016581004,-0.0034059584,-8.8416963e-24
0.06346066,-0.01563785,-0.0035717793,-2.5566518e-23
0.066005363,-0.014670203,-0.0037431846,-2.2698606e-23
0.068632762,-0.013677138,-0.0039203361,-2.1818045e-23
0.071345544,-0.012657673,-0.0041034005,-2.4665045e-23
0.074146484,-0.011610769,-0.0042925489,2.0629968e-24
0.077038447,-0.010535333,-0.0044879568,1.6618496e-23
0.08002439,-0.0094302048,-0.0046898044,2.1864429e-23
0.083107369,-0.008294166,-0.0048982766,3.8045438e-23
0.086290535,-0.0071259286,-0.0051135624,1.2414961e-23
0.089577146,-0.0059241351,-0.0053358559,-5.5962915e-24
0.092970562,-0.0046873527,-0.005565355,5.082479e-25
0.096474255,-0.0034140701,-0.0058022619,-7.4822267e-24
0.10009181,-0.0021027015,-0.0060467809,-1.4313863e-23
0.10382692,-0.00075158915,-0.0062991163,-3.4815834e-24
0.10768342,0.00064097916,-0.006559471,-2.1833195e-24
0.11166524,0.0020767846,-0.0068280482,-2.9767345e-23
0.11577645,0.0035577249,-0.0071050547,-1.0484761e-23
0.12002127,0.0050858481,-0.0073907049,1.2877137e-23
0.12440404,0.0066633678,-0.0076852218,-2.3317414e-24
0.12892923,0.0082926382,-0.0079888353,2.0335004e-23
0.13360148,0.0099761526,-0.008301779,3.5770384e-23
0.13842557,0.011716552,-0.0086242882,4.1991797e-23
0.14340642,0.013516638,-0.0089565998,6.1550541e-23
0.14854914,0.015379379,-0.0092989517,5.7461265e-23
0.15385898,0.017307928,-0.0096515821,-4.4776045e-23
0.15934138,0.019305632,-0.010014729,-4.8170795e-23
0.16500194,0.021376047,-0.010388629,1.1922118e-23
0.17084645,0.023522954,-0.010773517,1.7015263e-24
0.17688089,0.025750371,-0.011169625,-3.7597352e-23
0.18311143,0.028062575,-0.011577179,-1.5254195e-23
0.18954445,0.030464119,-0.0119964,5.4149401e-23
0.19618653,0.03295985,-0.012427503,8.300683e-23
0.20304445,0.035554933,-0.012870691,1.8752899e-23
0.21012524,0.03825487,-0.01332616,-2.6873756e-23
0.21743614,0.04106553,-0.013794088,1.8865599e-23
0.22498461,0.043993169,-0.014274639,4.9701025e-24
0.23277839,0.04704446,-0.01476796,2.5767918e-23
0.24082545,0.050226526,-0.015274173,-9.9097623e-23
0.24913402,0.053546965,-0.015793377,-2.5009303e-23
0.25771259,0.057013887,-0.01632564,1.5586099e-22
0.26656994,0.06063595,-0.016870998,4.5473389e-23
0.27571513,0.064422394,-0.017429445,-1.2993948e-22
0.28515751,0.068383081,-0.018000933,-8.4485824e-23
0.29490674,0.072528539,-0.018585363,1.2558458e-22
0.3049728,0.076870007,-0.019182577,1.5057437e-22
0.31536597,0.081419478,-0.019792356,-7.4079825e-24
0.3260969,0.08618972,-0.020414404,3.3913445e-23
0.33717655,0.091194337,-0.021048341,1.6175803e-22
0.34861625,0.096447825,-0.021693699,-3.5988759e-23
0.36042772,0.10196562,-0.022349902,-5.3161292e-23
0.37262303,0.10776413,-0.023016256,6.3125602e-25
0.38521464,0.11386078,-0.023691939,2.6734553e-23
0.39821546,0.12027406,-0.024375983,-6.5144009e-23
0.41163876,0.12702356,-0.025067254,-2.0294645e-22
0.42549828,0.13412997,-0.025764443,-1.8906449e-22
0.4398082,0.14161514,-0.02646604,-8.8354469e-23
0.45458315,0.14950208,-0.027170312,-4.8866597e-23
0.46983824,0.1578149,-0.02787529,-5.3540196e-22
0.48558908,0.16657889,-0.028578735,-3.8926913e-22
0.50185179,0.17582039,-0.029278118,5.2673952e-24
0.51864298,0.18556676,-0.029970588,-6.7503032e-23
0.53597984,0.1958463,-0.030652893,2.3346459e-22
0.5538801,0.20668811,-0.031321624,6.0749112e-23
0.57236207,0.21812224,-0.031973925,-1.0108393e-22
0.59144465,0.23018062,-0.032603244,-8.9684543e-23
0.61114736,0.24296996,-0.033196516,-7.7446642e-22
0.63149036,0.25670883,-0.033739965,-4.6047236e-22
0.65249445,0.271576,-0.034217685,8.9764835e-22
0.67418111,0.28761369,-0.03461804,5.8924044e-22
0.69657252,0.30477591,-0.034940917,-6.4158627e-22
0.7196916,0.32298104,-0.035188906,-1.2567115e-21
0.74356198,0.3421492,-0.035362768,-1.0564482e-21
0.76820808,0.36221893,-0.035460459,-1.2246266e-21
0.79365511,0.38314703,-0.035477508,-7.7636616e-22
0.8199291,0.4049,-0.035408101,-5.0339108e-22
0.84705692,0.42744173,-0.035246276,-2.1460367e-21
0.87506632,0.4507216,-0.034987064,-2.3543208e-22
0.90398595,0.47466653,-0.034627332,-1.0275424e-22
0.93384539,0.49917734,-0.034166306,-2.7259767e-21
0.94954502,0.51188412,-0.033881026,-2.7111532e-21
0.96467517,0.52412847,-0.033605566,-2.5720098e-21
0.99650683,0.54937162,-0.032949678,1.1535886e-21
1.0293729,0.57474125,-0.032206205,7.5622372e-22
1.0633071,0.60006181,-0.031384846,-2.5687432e-21
1.098344,0.62515793,-0.030497315,-3.7369294e-22
1.1345196,0.64986616,-0.029556716,-1.3376053e-21
1.1718707,0.67404578,-0.028576758,-1.4177219e-21
1.2104356,0.69758476,-0.027570905,1.2179818e-22
1.2502538,0.72040183,-0.026551471,1.8067664e-21
1.291366,0.74244747,-0.025528692,1.0267302e-21
1.3338142,0.76370281,-0.024510146,-3.323098e-22
1.3776419,0.78417457,-0.023500931,2.9443194e-22
1.4228938,0.80388821,-0.022504309,1.7850359e-21
1.4696163,0.82288507,-0.021522462,4.8872794e-22
1.5178571,0.84109397,-0.020563179,-3.1598996e-21
1.566098,0.85819112,-0.019647735,-3.0008045e-21
1.6128205,0.87390958,-0.018793452,-5.5938307e-22
1.6580724,0.88827487,-0.018000721,1.3650755e-21
1.7019001,0.90140762,-0.017264793,4.1509355e-22
1.7443483,0.91340849,-0.016581565,1.5399515e-21
1.7854605,0.92436787,-0.015946865,-2.8154533e-22
1.8252786,0.93437184,-0.015355625,-1.3655396e-21
1.8638436,0.94351126,-0.014801874,-1.0110736e-21
1.9011947,0.95190398,-0.014274534,-1.8313673e-21
1.9373703,0.95968145,-0.013762491,2.6851641e-22
1.9724072,0.96693107,-0.013261271,-3.1589161e-22
2.0063413,0.9736902,-0.012772115,-2.4064579e-21
2.0163351,0.97560392,-0.012627876,-2.2264866e-21
2.0392075,0.97998426,-0.012297879,-1.6981664e-21
2.0710391,0.98583906,-0.011839686,-1.212527e-21
2.1018689,0.9912802,-0.011398088,-1.2454289e-21
2.1317283,0.99633245,-0.010973052,-4.0373724e-22
2.160648,1.0010192,-0.010564291,4.6767633e-22
2.1886574,1.0053623,-0.010171351,4.7875045e-22
2.2157852,1.0093818,-0.0097936843,3.7556031e-22
2.2420592,1.0130963,-0.0094306954,5.0600857e-22
2.2675062,1.0165229,-0.009081768,3.8488367e-22
2.2921523,1.019677,-0.0087462841,8.0497679e-22
2.3160227,1.0225726,-0.008423639,5.0517502e-22
2.3391418,1.0252225,-0.0081132478,-6.7268427e-23
2.3615332,1.0276381,-0.0078145489,-3.0986782e-23
2.3832198,1.0298298,-0.0075270055,1.3014859e-22
2.4042239,1.0318065,-0.0072501068,1.3824711e-22
2.4245669,1.0335767,-0.0069833662,2.4274794e-24
2.4442696,1.0351473,-0.0067263212,3.52757e-23
2.4633522,1.0365247,-0.0064785315,2.7950994e-22
2.4818342,1.0377143,-0.0062395777,9.8603268e-23
2.4997344,1.0387206,-0.00600906,-3.6908603e-22
2.5170713,1.0395474,-0.0057865962,-4.0578109e-22
2.5338625,1.0401978,-0.0055718211,-3.6531599e-22
2.5501252,1.0406742,-0.0053643843,-5.0146866e-22
2.565876,1.0409784,-0.0051639497,-3.6213897e-22
2.5811311,1.0411112,-0.0049701939,7.8370043e-23
2.5959061,1.0410735,-0.0047828057,1.874904e-22
2.610216,1.040865,-0.0046014849,2.5376622e-22
2.6240755,1.0404853,-0.0044259417,3.6552229e-22
2.6374988,1.0399333,-0.0042558962,4.9560382e-22
2.6504996,1.0392077,-0.0040910779,3.4265612e-22
2.6630913,1.0383066,-0.0039312251,-1.041531e-22
2.6752866,1.037228,-0.0037760853,-1.0742728e-22
2.687098,1.0359693,-0.0036254145,-1.7595704e-22
2.6985377,1.0345281,-0.003478978,7.5833515e-24
2.7096174,1.0329015,-0.0033365505,3.1114103e-22
2.7203483,1.0310867,-0.0031979161,1.6360446e-22
2.7307415,1.0290808,-0.0030628695,2.9262516e-22
2.7408075,1.0268812,-0.0029312163,-9.3231604e-23
2.7505568,1.024485,-0.0028027738,-3.9159749e-22
2.7599992,1.0218899,-0.0026773719,-1.9897836e-22
2.7691443,1.0190937,-0.0025548538,-1.0082375e-22
2.7780017,1.0160947,-0.0024350771,1.8156468e-22
2.7865803,1.0128915,-0.002317914,4.0924076e-22
2.7948888,1.0094832,-0.0022032524,4.2312023e-22
2.8029359,1.0058696,-0.0020909964,4.4118398e-22
2.8107297,1.0020507,-0.0019810663,1.7809073e-22
2.8182781,0.99802745,-0.0018733986,9.4866081e-26
2.825589,0.99380133,-0.0017679459,-1.405254e-22
2.8326698,0.9893744,-0.0016646764,-1.0594296e-22
2.8395278,0.98474935,-0.001563573,5.3023639e-24
2.8461698,0.97992947,-0.0014646323,-8.7733761e-23
2.8526028,0.9749186,-0.0013678636,-2.0843606e-22
2.8588334,0.96972109,-0.001273287,-6.2357026e-23
2.8648678,0.96434179,-0.0011809327,-9.5569579e-24
2.8707123,0.95878595,-0.0010908386,-4.0132216e-23
2.8763729,0.95305919,-0.0010030497,3.049085e-22
2.8818553,0.94716739,-0.00091761418,2.1113858e-22
2.8871651,0.94111667,-0.00083458301,1.7329617e-23
2.8923079,0.93491328,-0.00075400305,6.6127111e-23
2.8972887,0.92856361,-0.00067590947,-4.1148271e-23
2.9021128,0.92207328,-0.00060038369,-3.2776608e-26
2.9067851,0.91542987,-0.00052744312,1.0330701e-22
2.9113102,0.90859829,-0.00045692382,-1.7099076e-23
2.915693,0.90155673,-0.00038880231,-1.4257162e-22
2.9199378,0.89431168,-0.00032322954,3.7171998e-23
2.924049,0.88688341,-0.00026031476,2.0026973e-22
2.9280309,0.87929684,-0.00020016192,8.6631181e-23
2.9318874,0.87157644,-0.00014287842,6.4180341e-23
2.9356225,0.86374389,-8.8563068e-05,9.0027368e-23
2.93924,0.85581751,-3.730318e-05,3.3866999e-24
2.9427437,0.84781225,1.0826986e-05,-8.6918354e-23
2.9461371,0.83974005,5.5769237e-05,-1.1558956e-22
2.9494237,0.83161043,9.7484736e-05,-3.3192987e-24
2.9526069,0.8234308,0.00013595994,8.4143309e-23
2.9556899,0.81520666,0.00017120919,6.1087733e-23
2.9586758,0.806942,0.00020327239,1.4279781e-23
2.9615678,0.79863944,0.00023221015,-7.3597329e-23
2.9643687,0.79030037,0.00025809601,-1.4594455e-23
2.9670815,0.78192506,0.00028101058,5.3508367e-23
2.9697089,0.77351279,0.00030103727,1.3543131e-23
2.9722536,0.76506193,0.00031825607,1.7836486e-25
2.9747182,0.75657004,0.00033273687,-2.7911985e-23
2.9771053,0.74803389,0.00034453476,-1.755699e-23
2.9794172,0.7394493,0.00035369149,-1.2875148e-23
2.9816563,0.73081048,0.00036027359,-1.4823189e-23
2.983825,0.72210853,0.00036446782,-3.4805425e-23
2.9859254,0.71332973,0.00036655517,-2.7657149e-23
2.9879597,0.70445822,0.00036683098,4.0302922e-24
2.98993,0.69548087,0.00036555684,-2.4828053e-23
2.9918382,0.68638651,0.00036288605,-1.7009025e-23
2.9936864,0.67716327,0.00035891202,1.1335492e-24
2.9954764,0.66779814,0.00035373682,9.7672919e-24
2.9972101,0.65827689,0.00034746526,1.7095421e-23
2.9988893,0.64858394,0.00034019805,2.9656392e-23
3.0005155,0.63870224,0.00033203203,1.7968766e-23
3.0020906,0.62861318,0.00032306168,-4.7461838e-24
3.0036161,0.61829644,0.00031338239,-2.0583191e-23
3.0050936,0.60772976,0.00030307403,-2.4352991e-23
3.0065246,0.59688623,0.00029217665,1.0120107e-23
3.0079106,0.5857328,0.00028072131,-1.3072043e-24
3.0092529,0.57423526,0.00026874938,-5.3188219e-24
3.010553,0.56236122,0.00025633081,1.1872556e-23
3.0118121,0.55007857,0.00024357515,4.3167827e-24
3.0130317,0.53735446,0.00023059344,8.8497304e-24
3.0142128,0.52415534,0.00021748626,9.7163289e-24
3.0153568,0.51044708,0.00020434565,-1.1257238e-23
3.0164647,0.49619429,0.00019125736,-7.6123217e-25
3.0175378,0.4813547,0.00017829466,2.6390851e-24
3.0185772,0.46587351,0.00016551594,4.5486411e-24
3.0195838,0.44969217,0.00015297081,2.5587108e-23
3.0205587,0.43276149,0.00014070711,2.0783537e-23
3.0215029,0.41504378,0.00012877119,7.9611861e-25
3.0224174,0.39651481,0.00011720368,-8.8355276e-24
3.0233032,0.3771713,0.00010604139,3.8690769e-24
3.024161,0.35703978,9.5317769e-05,1.0179671e-23
3.0249919,0.33618509,8.5063192e-05,-2.2827721e-24
3.0257966,0.31471609,7.5305803e-05,4.270873e-25
3.026576,0.29278513,6.607229e-05,1.7620839e-23
3.0273308,0.27057866,5.7388221e-05,6.4174558e-24
3.0280619,0.24829931,4.9277849e-05,-1.0025486e-23
3.02877,0.22614376,4.176324e-05,-1.2009631e-23
3.0294558,0.20428281,3.4863016e-05,-4.916435e-24
3.03012,0.18284916,2.8591283e-05,4.5254466e-24
3.0307633,0.16193456,2.2956955e-05,4.6209724e-24
3.0313863,0.14159433,1.796351e-05,-1.4445027e-24
3.0319898,0.12185564,1.3609171e-05,-5.9367583e-24
3.0325742,0.10272609,9.8873564e-06,-4.1490114e-24
3.0331403,0.084200935,6.7871643e-06,-7.6432105e-25
3.0336885,0.06626823,4.2939218e-06,4.8456091e-24
3.0342195,0.048912109,2.3910975e-06,3.1913982e-24
3.0347338,0.032114829,1.0622313e-06,1.0532006e-24
3.0352319,0.015858078,2.7626426e-07,1.0142479e-25
3.0357122,6.7589101e-05,1.177508e-09,4.2968537e-28
