y,k
0,1e-10
0.00048240845,1.2858523e-07
0.00098049384,3.2992364e-07
0.0014947656,1.3210703e-06
0.0020257498,3.8178509e-06
0.0025739895,8.8486939e-06
0.0031400454,1.7719496e-05
0.0037244966,3.2037248e-05
0.0043279408,5.3741998e-05
0.0049509953,8.5138133e-05
0.0055942973,0.000128917
0.0062585048,0.00018815917
0.0069442972,0.00026629889
0.007652376,0.00036702667
0.0083834654,0.00049410189
0.0091383131,0.00065105118
0.0099176913,0.00084074933
0.010722397,0.0010649243
0.011553254,0.0013236898
0.012411111,0.00161526
0.013296846,0.0019359872
0.014211364,0.0022807722
0.015155603,0.0026437449
0.016130526,0.0030190097
0.017137132,0.0034012543
0.018176449,0.0037861083
0.019249542,0.0041702541
0.020357507,0.0045513604
0.021501477,0.004927922
0.022682624,0.0052990749
0.023902154,0.005664424
0.025161316,0.0060239008
0.026461397,0.0063776549
0.027803728,0.0067259745
0.02918968,0.00706923
0.030620672,0.007407836
0.032098167,0.0077422256
0.033623676,0.0080728341
0.03519876,0.0084000887
0.03682503,0.0087244021
0.03850415,0.0090461695
0.040237836,0.0093657672
0.042027862,0.0096835523
0.043876059,0.0099998631
0.045784317,0.01031502
0.047754588,0.010629328
0.049788888,0.010943076
0.051889297,0.011256538
0.054057963,0.011569978
0.056297104,0.011883648
0.058609012,0.01219779
0.06099605,0.012512637
0.06346066,0.012828415
0.066005363,0.013145343
0.068632762,0.013463636
0.071345544,0.013783503
0.074146484,0.01410515
0.077038447,0.014428778
0.08002439,0.014754588
0.083107369,0.015082779
0.086290535,0.015413549
0.089577146,0.015747094
0.092970562,0.016083614
0.096474255,0.016423305
0.10009181,0.016766366
0.10382692,0.017113001
0.10768342,0.01746341
0.11166524,0.017817801
0.11577645,0.018176382
0.12002127,0.018539365
0.12440404,0.018906964
0.12892923,0.0192794
0.13360148,0.019656895
0.13842557,0.020039678
0.14340642,0.020427979
0.14854914,0.020822037
0.15385898,0.021222091
0.15934138,0.021628387
0.16500194,0.022041176
0.17084645,0.022460711
0.17688089,0.022887251
0.18311143,0.023321056
0.18954445,0.023762391
0.19618653,0.024211523
0.20304445,0.024668717
0.21012524,0.025134239
0.21743614,0.025608355
0.22498461,0.026091325
0.23277839,0.026583403
0.24082545,0.027084834
0.24913402,0.027595852
0.25771259,0.028116674
0.26656994,0.028647494
0.27571513,0.029188485
0.28515751,0.029739785
0.29490674,0.030301492
0.3049728,0.030873657
0.31536597,0.031456288
0.3260969,0.032049334
0.33717655,0.032652661
0.34861625,0.033266044
0.36042772,0.033889146
0.37262303,0.034521506
0.38521464,0.035162513
0.39821546,0.035811388
0.41163876,0.036467154
0.42549828,0.03712861
0.4398082,0.037794299
0.45458315,0.038462473
0.46983824,0.039131057
0.48558908,0.039797611
0.50185179,0.040459286
0.51864298,0.04111278
0.53597984,0.041754295
0.5538801,0.042381315
0.57236207,0.042993573
0.59144465,0.043586947
0.61114736,0.044148183
0.63149036,0.044658092
0.65249445,0.045096747
0.67418111,0.045446316
0.69657252,0.045691816
0.7196916,0.045820629
0.74356198,0.045821731
0.76820808,0.045685266
0.79365511,0.04540267
0.8199291,0.044967257
0.84705692,0.044375088
0.87506632,0.043625891
0.90398595,0.04272391
0.93384539,0.041678522
0.96467517,0.040504552
0.99650683,0.039222148
1.0293729,0.037856139
1.0633071,0.036434833
1.098344,0.034988286
1.1345196,0.033546184
1.1718707,0.032135593
1.2104356,0.030778929
1.2502538,0.029492446
1.291366,0.028285538
1.3338142,0.027160905
1.3776419,0.026115461
1.4228938,0.025141637
1.4696163,0.024228537
1.5178571,0.023366441
1.566098,0.022553618
1.6128205,0.021789277
1.6580724,0.021066743
1.7019001,0.020379784
1.7443483,0.019724957
1.7854605,0.0190994
1.8252786,0.018500068
1.8638436,0.017924003
1.9011947,0.017368708
1.9373703,0.016832309
1.9724072,0.016313523
2.0063413,0.015811539
2.0392075,0.015325868
2.0710391,0.014856223
2.1018689,0.014402433
2.1317283,0.013964383
2.160648,0.013541969
2.1886574,0.013135074
2.2157852,0.012743554
2.2420592,0.012367229
2.2675062,0.012005884
2.2921523,0.011659274
2.3160227,0.011327123
2.3391418,0.011009135
2.3615332,0.010704999
2.3832198,0.010414394
2.4042239,0.010136997
2.4245669,0.0098724879
2.4442696,0.0096205532
2.4633522,0.0093808917
2.4818342,0.0091532166
2.4997344,0.0089372584
2.5170713,0.008732767
2.5338625,0.0085395129
2.5501252,0.0083572878
2.565876,0.0081859046
2.5811311,0.0080251972
2.5959061,0.007875019
2.610216,0.0077352419
2.6240755,0.0076057544
2.6374988,0.0074864589
2.6504996,0.0073772691
2.6630913,0.0072781073
2.6752866,0.0071889006
2.687098,0.0071095777
2.6985377,0.0070400654
2.7096174,0.0069802842
2.7203483,0.0069301457
2.7307415,0.0068895479
2.7408075,0.0068583731
2.7505568,0.0068364837
2.7599992,0.0068237208
2.7691443,0.0068199012
2.7780017,0.0068248162
2.7865803,0.0068382303
2.7948888,0.0068598808
2.8029359,0.0068894777
2.8107297,0.0069267045
2.8182781,0.0069712185
2.825589,0.0070226533
2.8326698,0.0070806197
2.8395278,0.0071447083
2.8461698,0.0072144923
2.8526028,0.0072895298
2.8588334,0.0073693672
2.8648678,0.0074535424
2.8707123,0.0075415885
2.8763729,0.0076330367
2.8818553,0.007727421
2.8871651,0.0078242818
2.8923079,0.00792317
2.8972887,0.0080236514
2.9021128,0.0081253113
2.9067851,0.008227798
2.9113102,0.0083309228
2.915693,0.008434538
2.9199378,0.008538137
2.924049,0.0086408095
2.9280309,0.0087415183
2.9318874,0.0088392525
2.9356225,0.0089330984
2.93924,0.0090222634
2.9427437,0.0091060744
2.9461371,0.0091839669
2.9494237,0.0092554694
2.9526069,0.0093201897
2.9556899,0.0093778025
2.9586758,0.0094280383
2.9615678,0.0094706745
2.9643687,0.0095055277
2.9670815,0.0095324461
2.9697089,0.0095513032
2.9722536,0.0095619911
2.9747182,0.0095644143
2.9771053,0.0095584833
2.9794172,0.0095441083
2.9816563,0.0095211929
2.983825,0.0094896277
2.9859254,0.0094492833
2.9879597,0.0094000043
2.98993,0.0093416018
2.9918382,0.0092738462
2.9936864,0.0091964596
2.9954764,0.0091091105
2.9972101,0.0090114069
2.9988893,0.0089028874
3.0005155,0.0087830142
3.0020906,0.0086511669
3.0036161,0.0085066372
3.0050936,0.0083486249
3.0065246,0.0081762372
3.0079106,0.0079884909
3.0092529,0.0077843203
3.010553,0.0075625922
3.0118121,0.0073221279
3.0130317,0.0070617439
3.0142128,0.0067803137
3.0153568,0.0064768366
3.0164647,0.0061505121
3.0175378,0.0058005926
3.0185772,0.0054263056
3.0195838,0.0050274876
3.0205587,0.0046052826
3.0215029,0.0041624728
3.0224174,0.0037038786
3.0233032,0.0032367699
3.024161,0.002771007
3.0249919,0.0023186508
3.0257966,0.0018928265
3.026576,0.0015058813
3.0273308,0.0011672916
3.0280619,0.00088208767
3.02877,0.00065042458
3.0294558,0.00046836461
3.03012,0.00032937293
3.0307633,0.00022587362
3.0313863,0.0001504414
3.0319898,9.6519304e-05
3.0325742,5.874452e-05
3.0331403,3.3006822e-05
3.0336885,1.6323439e-05
3.0342195,6.5522629e-06
3.0347338,1.9598587e-06
3.0352319,1.2003315e-06
3.0357069,1.8510379e-08
3.0357143,1e-10
