y,R_0,R_1,R_2,R_3,R_4,R_5
0,6.6666667e-11,0,0,6.6666667e-11,0,6.6666667e-11
0.00048240845,3.6824725e-08,7.9294717e-12,-6.7841662e-34,3.6824744e-08,9.0815874e-34,3.6824735e-08
0.00098049384,1.7573581e-07,1.4764329e-10,-8.1221528e-33,1.7573647e-07,2.6989204e-31,1.7573614e-07
0.0014947656,7.2441296e-07,1.2433038e-09,6.8883782e-32,7.2442103e-07,1.2341113e-30,7.2441699e-07
0.0020257498,2.098048e-06,6.230203e-09,-8.3348817e-32,2.0981019e-06,-3.9825776e-30,2.0980749e-06
0.0025739895,4.864307e-06,2.2489498e-08,2.6439995e-31,4.8645549e-06,2.3176502e-29,4.864431e-06
0.0031400454,9.7420044e-06,6.5010226e-08,8.1184435e-30,9.7428921e-06,1.3763747e-28,9.7424484e-06
0.0037244966,1.7616146e-05,1.6027962e-07,1.6080828e-29,1.7618805e-05,-2.1224177e-28,1.7617476e-05
0.0043279408,2.9557074e-05,3.5069585e-07,-7.7515561e-30,2.9564042e-05,-1.0625744e-27,2.9560558e-05
0.0049509953,4.6840399e-05,6.9904807e-07,-1.1769436e-28,4.6856873e-05,-7.5129586e-28,4.6848636e-05
0.0055942973,7.0964391e-05,1.2921635e-06,-1.9745996e-28,7.1000284e-05,3.175405e-27,7.0982339e-05
0.0062585048,0.00010365971,2.2420965e-06,5.3358519e-28,0.00010373286,1.1270217e-26,0.00010369629
0.0069442972,0.00014688331,3.6821654e-06,1.6547575e-27,0.00014702436,-7.4747901e-27,0.00014695384
0.007652376,0.00020278457,5.7538318e-06,-1.7764068e-27,0.00020304395,-2.0493971e-26,0.00020291428
0.0083834654,0.0002736274,8.5794427e-06,8.0003564e-28,0.00027408513,-1.7735488e-26,0.00027385629
0.0091383131,0.00036165078,1.2216636e-05,-6.6039888e-27,0.00036242932,-6.306957e-27,0.0003620401
0.0099176913,0.00046885488,1.6595169e-05,-2.0830472e-27,0.00047013524,7.5013105e-26,0.00046949512
0.010722397,0.00059671832,2.1448213e-05,4.5888833e-27,0.00059875839,5.4894168e-26,0.00059773838
0.011553254,0.00074588524,2.6265639e-05,1.420234e-26,0.00074903873,-1.3740889e-25,0.00074746193
0.012411111,0.00091590265,3.0306161e-05,-2.8726015e-26,0.00092063556,-2.0522872e-25,0.00091826888
0.013296846,0.0011051108,3.2692252e-05,-1.6113815e-26,0.0011120121,2.0179703e-25,0.001108561
0.014211364,0.0013107632,3.2571731e-05,1.8669261e-26,0.0013205468,-4.7874938e-25,0.0013156543
0.015155603,0.0015293698,2.9286177e-05,-1.9354832e-25,0.0015428684,-6.3139846e-25,0.0015361182
0.016130526,0.0017571662,2.247623e-05,-1.2859807e-25,0.0017753169,1.1161699e-24,0.0017662407
0.017137132,0.0019905639,1.2090071e-05,6.9424979e-26,0.0020143895,7.5605943e-25,0.0020024761
0.018176449,0.0022264702,-1.6865207e-06,-6.2141134e-26,0.0022570597,-1.3097673e-24,0.0022417646
0.019249542,0.0024624398,-1.8531587e-05,-5.0449286e-25,0.0025009307,-1.2187243e-24,0.0024816852
0.020357507,0.0026966852,-3.8078234e-05,-5.1866365e-25,0.0027442488,2.9427268e-25,0.0027204672
0.021501477,0.0029279981,-5.9976467e-05,-6.6506527e-25,0.0029858286,6.5766395e-25,0.0029569138
0.022682624,0.0031556353,-8.3925026e-05,-7.2952896e-25,0.0032249428,5.1208458e-25,0.0031902897
0.023902154,0.0033792028,-0.00010968143,-7.8270324e-25,0.0034612087,5.5698799e-25,0.0034202064
0.025161316,0.0035985551,-0.00013706012,-5.0781684e-25,0.00369449,2.6299154e-24,0.0036465233
0.026461397,0.0038137157,-0.00016592487,7.4107199e-25,0.003924819,7.299414e-25,0.0038692681
0.027803728,0.0040248178,-0.0001961799,-2.0051552e-25,0.0041523379,-2.2124993e-24,0.0040885786
0.02918968,0.0042320625,-0.00022776137,-2.6582722e-25,0.0043772577,-1.7438426e-24,0.0043046607
0.030620672,0.0044356885,-0.00026062996,-1.7256664e-24,0.0045998286,-1.8506969e-24,0.0045177592
0.032098167,0.0046359536,-0.00029476573,-1.7046961e-24,0.0048203211,2.2338606e-24,0.0047281379
0.033623676,0.0048331206,-0.00033016376,-2.9026772e-25,0.0050390126,1.9997809e-24,0.0049360672
0.03519876,0.0050274501,-0.00036683025,-1.3609099e-24,0.0052561791,-1.679401e-24,0.0051418151
0.03682503,0.0052191949,-0.00040478054,-1.9694166e-24,0.0054720905,-1.9555969e-24,0.0053456431
0.03850415,0.0054085973,-0.00044403741,-3.1137237e-24,0.0056870073,3.1246053e-24,0.0055478027
0.040237836,0.005595888,-0.00048462943,1.0529499e-24,0.0059011791,7.8350882e-24,0.005748534
0.042027862,0.0057812855,-0.00052658981,3.9014031e-24,0.0061148441,-2.0207671e-24,0.0059480652
0.043876059,0.0059649963,-0.00056995595,-1.0891531e-24,0.0063282292,-8.247711e-24,0.0061466132
0.045784317,0.0061472154,-0.00061476867,-3.4499115e-24,0.0065415502,3.0064459e-24,0.0063443832
0.047754588,0.0063281274,-0.00066107223,1.3767116e-24,0.0067550121,6.3090669e-24,0.0065415701
0.049788888,0.0065079069,-0.00070891411,2.0683255e-24,0.0069688105,6.8765471e-24,0.006738359
0.051889297,0.0066867199,-0.00075834376,9.3284272e-24,0.0071831315,1.3989769e-23,0.006934926
0.054057963,0.0068647246,-0.0008094132,1.5004333e-23,0.0073981531,-5.5242984e-24,0.0071314391
0.056297104,0.0070420722,-0.00086217765,1.0004755e-24,0.0076140457,-2.2941356e-23,0.0073280593
0.058609012,0.0072189081,-0.00091669422,-7.6721807e-24,0.0078309726,1.4048006e-24,0.0075249406
0.06099605,0.0073953726,-0.00097302209,5.7914381e-24,0.0080490908,2.1648342e-23,0.007722232
0.06346066,0.0075716018,-0.0010312234,1.5496779e-23,0.0082685515,9.6638008e-24,0.0079200769
0.066005363,0.007747728,-0.0010913624,1.314497e-23,0.0084895004,-3.4183132e-25,0.0081186145
0.068632762,0.0079238816,-0.0011535054,1.2761681e-23,0.0087120789,3.1614071e-24,0.0083179805
0.071345544,0.0081001904,-0.0012177221,1.1782774e-23,0.008936424,-1.2054313e-23,0.0085183075
0.074146484,0.0082767813,-0.0012840834,-4.6476015e-24,0.0091626685,-2.6247675e-23,0.0087197251
0.077038447,0.0084537805,-0.0013526633,-1.0732881e-23,0.0093909415,-1.4533095e-23,0.0089223612
0.08002439,0.0086313143,-0.0014235384,-1.2954374e-23,0.0096213691,-1.7040036e-23,0.009126342
0.083107369,0.0088095099,-0.0014967879,-1.8873223e-23,0.0098540741,8.8934908e-25,0.0093317923
0.086290535,0.0089884956,-0.0015724931,-4.0677171e-24,0.010089177,2.7961415e-23,0.0095388363
0.089577146,0.0091684016,-0.0016507382,6.1961059e-24,0.010326794,9.2473257e-24,0.0097475979
0.092970562,0.0093493603,-0.0017316106,2.7017117e-24,0.01056704,1.1790748e-24,0.0099582006
0.096474255,0.0095315076,-0.0018151998,1.6139792e-24,0.010810028,1.1989571e-23,0.010170768
0.10009181,0.0097149826,-0.0019015985,2.9896173e-24,0.011055868,-5.5973836e-26,0.010385426
0.10382692,0.0098999285,-0.0019909018,-2.3555315e-24,0.011304668,-8.1712611e-24,0.010602298
0.10768342,0.010086493,-0.0020832073,-3.3962533e-24,0.011556532,2.0626396e-23,0.010821513
0.11166524,0.010274829,-0.0021786164,2.0692584e-25,0.011811565,1.4592071e-23,0.011043197
0.11577645,0.010465095,-0.0022772328,-2.3397691e-24,0.012069868,-3.0480162e-23,0.011267481
0.12002127,0.010657456,-0.002379163,1.4332887e-24,0.012331539,-1.003509e-23,0.011494497
0.12440404,0.010852086,-0.0024845084,8.9490323e-24,0.01259667,-4.8982203e-24,0.011724378
0.12892923,0.011049178,-0.0025933449,1.1230703e-24,0.012865342,-3.7445054e-23,0.011957261
0.13360148,0.011248942,-0.0027057144,-2.6036322e-24,0.013137624,-3.0077914e-23,0.012193286
0.13842557,0.011451597,-0.0028216717,-8.9450192e-25,0.013413591,-3.6775942e-23,0.012432596
0.14340642,0.011657345,-0.0029413622,7.8130373e-24,0.013693339,-3.7503463e-23,0.012675342
0.14854914,0.011866372,-0.0030649937,1.3900407e-23,0.013976974,6.2562138e-23,0.012921672
0.15385898,0.012078879,-0.0031927435,-2.2475329e-23,0.014264599,1.0750943e-22,0.013171739
0.15934138,0.012295088,-0.0033247475,-1.116605e-23,0.014556303,-2.5653133e-23,0.013425696
0.16500194,0.01251524,-0.0034611342,1.0510325e-23,0.014852163,-4.7066399e-23,0.013683702
0.17084645,0.012739583,-0.0036020341,1.0039548e-24,0.015152252,4.050144e-23,0.013945918
0.17688089,0.012968375,-0.0037475783,-4.7316535e-23,0.015456637,3.4637056e-23,0.014212506
0.18311143,0.013201884,-0.0038978991,-4.3055928e-23,0.015765384,-7.0756573e-23,0.014483635
0.18954445,0.013440389,-0.0040531287,5.0869969e-23,0.016078551,-1.1410894e-22,0.014759471
0.19618653,0.013684177,-0.0042133995,1.0311467e-22,0.016396195,-2.0924662e-23,0.015040186
0.20304445,0.013933544,-0.0043788434,2.0901473e-23,0.016718362,8.175983e-23,0.015325953
0.21012524,0.014188795,-0.00454959,-2.5773418e-23,0.017045095,1.7186606e-23,0.015616945
0.21743614,0.014450243,-0.0047257663,2.8792936e-23,0.017376427,-4.0840124e-23,0.015913336
0.22498461,0.014718209,-0.0049074967,3.286041e-23,0.017712386,-7.8328607e-24,0.016215299
0.23277839,0.014993018,-0.0050949016,7.3447445e-23,0.018052987,6.7794579e-23,0.016523004
0.24082545,0.015274999,-0.0052880949,-1.8973365e-22,0.018398237,1.1620994e-22,0.01683662
0.24913402,0.015564487,-0.0054871844,-1.8183743e-23,0.018748129,-1.9052578e-22,0.017156309
0.25771259,0.015861813,-0.0056922692,3.3053984e-22,0.019102641,-1.7683094e-22,0.017482228
0.26656994,0.016167309,-0.0059034377,5.5186187e-23,0.019461737,1.9492418e-22,0.017814524
0.27571513,0.016481301,-0.0061207664,-3.551191e-22,0.019825363,2.1075537e-22,0.018153333
0.28515751,0.016804106,-0.0063443174,-2.0432421e-22,0.020193438,-1.3122139e-22,0.018498774
0.29490674,0.01713603,-0.0065741363,3.6986996e-22,0.020565862,-2.8738027e-22,0.018850948
0.3049728,0.017477359,-0.0068102482,4.6422151e-22,0.020942507,-2.4134565e-23,0.019209934
0.31536597,0.017828357,-0.007052655,5.8140344e-24,0.021323205,9.6802702e-23,0.019575783
0.3260969,0.01818926,-0.0073013325,2.0099242e-22,0.021707757,-1.5246311e-22,0.01994851
0.33717655,0.018560263,-0.0075562267,5.5800765e-22,0.022095916,-8.4143135e-23,0.020328092
0.34861625,0.018941521,-0.0078172473,-1.120986e-22,0.022487385,1.9955194e-22,0.020714455
0.36042772,0.019333128,-0.0080842642,-4.7454032e-23,0.022881807,2.2954102e-23,0.02110747
0.37262303,0.019735116,-0.0083571022,8.1090946e-23,0.02327876,-6.9233637e-23,0.02150694
0.38521464,0.020147437,-0.008635535,2.6738518e-22,0.023677742,1.6647014e-23,0.021912592
0.39821546,0.020569951,-0.0089192762,-2.6120906e-22,0.024078162,2.1424957e-22,0.022324059
0.41163876,0.02100241,-0.0092079754,-9.8615352e-22,0.024479325,2.6692701e-22,0.022740871
0.42549828,0.021444444,-0.0095012083,-9.0643889e-22,0.024880423,9.8861698e-23,0.023162437
0.4398082,0.021895535,-0.0097984649,-4.3044404e-22,0.025280512,-1.177685e-23,0.023588027
0.45458315,0.022355003,-0.010099142,-1.322663e-22,0.025678493,3.3024676e-22,0.024016752
0.46983824,0.022821983,-0.010402531,-2.7583442e-21,0.026073103,6.8260074e-22,0.024447546
0.48558908,0.0232954,-0.01070781,-1.9840386e-21,0.026462878,3.6401577e-24,0.024879141
0.50185179,0.023773948,-0.011014025,1.9526145e-22,0.026846135,-1.9621004e-22,0.025310043
0.51864298,0.024256066,-0.011320058,-4.2624421e-22,0.027220912,-6.0131442e-23,0.025738504
0.53597984,0.024739925,-0.011624617,1.2414354e-21,0.027584982,-2.5846229e-22,0.0261625
0.5538801,0.025223398,-0.011926241,4.2166485e-22,0.027936671,1.5591551e-22,0.026579702
0.57236207,0.025704108,-0.012223252,-6.7417976e-22,0.028273548,1.5978944e-22,0.026987449
0.59144465,0.026179368,-0.012541941,-6.1128174e-22,0.028585413,3.9978177e-22,0.027382724
0.61114736,0.026667591,-0.012834624,-4.7584479e-21,0.028852628,7.993039e-22,0.027763257
0.63149036,0.027184466,-0.013045158,-2.9840416e-21,0.029069433,-4.3692407e-22,0.028127911
0.65249445,0.027699601,-0.013216741,5.0664569e-21,0.029248722,-1.1199079e-21,0.028472528
0.67418111,0.028172329,-0.013371536,3.713294e-21,0.029403742,2.4838734e-22,0.028786967
0.69657252,0.028581246,-0.013503271,-3.2992243e-21,0.029534878,1.1265539e-21,0.029057761
0.7196916,0.028915946,-0.013606533,-7.452298e-21,0.02962724,8.6273697e-22,0.029271637
0.74356198,0.02917119,-0.013676718,-6.3050754e-21,0.029663027,5.5838023e-22,0.029417275
0.76820808,0.02934334,-0.013709988,-7.0642657e-21,0.029627506,5.2990426e-22,0.029485596
0.79365511,0.029428386,-0.013703127,-4.5280273e-21,0.029509939,1.5490967e-22,0.02946929
0.8199291,0.029421288,-0.013653388,-3.1816464e-21,0.029303115,6.6493615e-22,0.029362273
0.84705692,0.029316347,-0.013558488,-1.2327973e-20,0.029002569,1.0048018e-21,0.029159483
0.87506632,0.029108176,-0.013416749,-5.551601e-22,0.028606033,-4.9433247e-22,0.0288571
0.90398595,0.028792849,-0.013227352,-1.6070675e-22,0.02811328,6.8919265e-22,0.028453045
0.93384539,0.028368949,-0.01299061,-1.6423616e-20,0.027526324,1.8584316e-21,0.027947611
0.94954502,0.028098706,-0.01284678,-1.7055529e-20,0.027181741,9.2796394e-22,0.027640197
0.96467517,0.027838373,-0.01270822,-1.6887722e-20,0.026849791,-9.626791e-24,0.027344054
0.99650683,0.027206795,-0.012383425,8.826427e-21,0.026091277,-1.2837276e-21,0.026649007
1.0293729,0.026483828,-0.012021073,5.7010721e-21,0.025261506,6.5644618e-22,0.025872638
1.0633071,0.025682858,-0.011627531,-1.9684489e-20,0.024374225,1.2515136e-21,0.025028512
1.098344,0.024820416,-0.011210434,-4.7755914e-21,0.023445712,-1.3291609e-22,0.02413303
1.1345196,0.023914073,-0.010777736,-1.156977e-20,0.022492821,7.1815654e-22,0.023203411
1.1718707,0.022982169,-0.010337583,-1.0234045e-20,0.021532629,1.6531638e-22,0.022257367
1.2104356,0.022044725,-0.0098987642,1.3163323e-21,0.020583153,-7.9501321e-22,0.021313913
1.2502538,0.021120029,-0.0094691583,1.7435807e-20,0.019660129,-8.3956116e-22,0.020390061
1.291366,0.020222326,-0.0090547001,8.9299473e-21,0.018774989,5.6791272e-23,0.01949865
1.3338142,0.019362136,-0.0086595898,-2.0715614e-21,0.017935353,2.2094209e-22,0.018648749
1.3776419,0.018545887,-0.0082862024,3.1734514e-21,0.017145004,-5.2194614e-22,0.017845462
1.4228938,0.01777582,-0.0079351909,1.9733816e-20,0.016404405,-6.3706222e-22,0.017090112
1.4696163,0.017049952,-0.0076056213,4.5862635e-21,0.015711123,9.4293575e-22,0.016380518
1.5178571,0.016365899,-0.0072930941,-4.067635e-20,0.015062597,1.797332e-21,0.015714266
1.566098,0.015726847,-0.0069978658,-4.4619263e-20,0.014459379,3.4655461e-22,0.015093164
1.6128205,0.015134885,-0.0067254132,-9.1033399e-21,0.013900122,-7.6744205e-22,0.014517537
1.6580724,0.01458515,-0.0064747536,2.0751757e-20,0.013379416,-6.3591294e-22,0.01398229
1.7019001,0.014071888,-0.0062416733,6.1824623e-21,0.0128924,-2.0089541e-22,0.01348213
1.7443483,0.01359147,-0.0060236414,3.0562274e-20,0.012435423,-2.7214657e-22,0.013013437
1.7854605,0.013141664,-0.0058188328,-7.1298741e-21,0.012004981,8.8453577e-22,0.012573162
1.8252786,0.012721165,-0.0056254318,-2.9275295e-20,0.011594899,6.2066698e-22,0.012158207
1.8638436,0.012328051,-0.0054251518,-2.4793961e-20,0.011200205,4.8751815e-22,0.011764609
1.9011947,0.011955582,-0.0052048623,-4.4118754e-20,0.010820798,2.2482755e-22,0.011388036
1.9373703,0.01159437,-0.0049771872,7.6137259e-21,0.0104576,-5.3886765e-22,0.011025731
1.9724072,0.011241165,-0.0047488891,-8.3520692e-21,0.010112168,1.0369588e-21,0.010676712
2.0063413,0.010897297,-0.0045190545,-6.4179459e-20,0.0097838028,1.2591094e-21,0.010340553
2.0163351,0.010795833,-0.0044494083,-5.948698e-20,0.0096884119,9.403644e-22,0.010242126
2.0392075,0.010563609,-0.0042900107,-4.5648694e-20,0.009470105,1.5659171e-22,0.010016861
2.0710391,0.010240531,-0.0040631087,-3.3746463e-20,0.0091699745,2.129978e-22,0.0097052522
2.1018689,0.0099282035,-0.0038391809,-3.5120117e-20,0.0088825233,5.3339624e-23,0.0094053662
2.1317283,0.0096266425,-0.0036187641,-1.1569657e-20,0.0086070921,-4.9392227e-22,0.0091168675
2.160648,0.0093357236,-0.0034022366,1.277301e-20,0.0083431552,-4.8912395e-22,0.0088394412
2.1886574,0.0090552925,-0.0031898466,1.39894e-20,0.0080902805,-1.024249e-22,0.0085727899
2.2157852,0.0087851787,-0.002981756,1.1210551e-20,0.0078480963,-1.1156777e-22,0.008316631
2.2420592,0.0085251223,-0.0027781061,1.4325827e-20,0.0076162704,-1.460321e-22,0.0080706935
2.2675062,0.008274922,-0.0025790343,1.0565697e-20,0.0073944955,-2.3763961e-22,0.0078347157
2.2921523,0.0080343931,-0.0023846436,2.2943214e-20,0.0071824813,-2.2017685e-22,0.0076084449
2.3160227,0.0078033134,-0.0021949896,1.4470829e-20,0.0069799489,2.291472e-22,0.0073916355
2.3391418,0.0075814674,-0.002010129,-2.2120841e-21,0.0067866283,2.1248989e-22,0.0071840501
2.3615332,0.0073686592,-0.0018301139,-7.032653e-22,0.0066022581,-7.3024986e-23,0.0069854597
2.3832198,0.0071647137,-0.0016549492,3.7263736e-21,0.0064265854,-9.1492588e-23,0.0067956442
2.4042239,0.0069694326,-0.0014846563,3.9004656e-21,0.0062593667,1.9821861e-23,0.0066143938
2.4245669,0.0067826491,-0.0013192484,1.2006389e-22,0.0061003695,2.9974051e-23,0.0064415106
2.4442696,0.0066042434,-0.0011586751,1.1326903e-21,0.0059493737,-1.1596693e-22,0.0062768087
2.4633522,0.0064340656,-0.0010029028,6.5309504e-21,0.0058061732,-5.91225e-23,0.0061201159
2.4818342,0.0062719786,-0.00085189844,2.354936e-21,0.0056705769,2.3562385e-22,0.0059712743
2.4997344,0.006117871,-0.00070559391,-8.3794354e-21,0.00554241,2.3897823e-22,0.005830141
2.5170713,0.0059716668,-0.00056391367,-8.8033736e-21,0.005421515,4.0980046e-23,0.0056965888
2.5338625,0.0058332631,-0.0004267865,-7.9075899e-21,0.0053077518,6.0796015e-23,0.0055705059
2.5501252,0.0057025928,-0.00029411072,-1.0049483e-20,0.0052009987,3.9130953e-23,0.005451796
2.565876,0.0055796028,-0.00016576479,-7.1082053e-21,0.0051011515,-1.7650148e-22,0.0053403782
2.5811311,0.0054642436,-4.1661284e-05,1.5175263e-21,0.0050081236,-2.0490228e-22,0.005236186
2.5959061,0.0053564853,7.8316383e-05,3.282169e-21,0.004921845,-7.111641e-23,0.0051391666
2.610216,0.0052562999,0.00019430622,4.3923649e-21,0.0048422611,-7.2439233e-23,0.0050492794
2.6240755,0.0051636674,0.00030641347,5.9990711e-21,0.0047693314,-9.8930008e-23,0.0049664943
2.6374988,0.0050785532,0.00041477676,7.9116184e-21,0.0047030272,-1.9502981e-23,0.0048907901
2.6504996,0.0050009723,0.00051955619,5.2271314e-21,0.0046433295,1.7470089e-22,0.0048221519
2.6630913,0.0049309143,0.00062087616,-1.3857776e-21,0.0045902265,1.4742888e-22,0.0047605686
2.6752866,0.0048683498,0.00071886238,-1.5929814e-21,0.0045437107,2.9587594e-23,0.0047060302
2.687098,0.0048132732,0.00081367063,-2.2197377e-21,0.0045037751,-2.9939129e-23,0.0046585245
2.6985377,0.0047656569,0.00090545264,-1.1254484e-22,0.0044704106,-1.4436238e-22,0.0046180337
2.7096174,0.0047254606,0.0009943339,3.8351025e-21,0.0044436016,-5.4684636e-23,0.0045845313
2.7203483,0.0046926337,0.0010804557,1.8148974e-21,0.004423323,1.1870486e-24,0.0045579785
2.7307415,0.0046671066,0.0011639578,3.1878996e-21,0.004409536,6.378006e-23,0.0045383207
2.7408075,0.0046487864,0.0012449656,-8.5586282e-22,0.0044021851,1.882531e-22,0.0045254842
2.7505568,0.0046375529,0.0013236272,-3.8437725e-21,0.0044011944,3.7106454e-23,0.0045193735
2.7599992,0.0046332699,0.0014000456,-1.8845963e-21,0.0044064649,-7.2462619e-23,0.0045198685
2.7691443,0.0046357696,0.0014743027,-8.8242447e-22,0.004417872,-9.7256204e-23,0.0045268224
2.7780017,0.0046448551,0.0015465374,1.5128835e-21,0.0044352637,-1.3242841e-22,0.0045400602
2.7865803,0.0046602934,0.0016168444,3.3831674e-21,0.0044584592,-6.7089232e-23,0.0045593775
2.7948888,0.0046818303,0.0016852805,3.341032e-21,0.0044872485,-1.339032e-23,0.0045845405
2.8029359,0.0047091806,0.0017519322,3.3636009e-21,0.0045213925,5.3421176e-23,0.0046152864
2.8107297,0.0047420235,0.0018168451,1.3022651e-21,0.0045606234,1.0125216e-22,0.0046513243
2.8182781,0.0047800264,0.0018800519,-5.2526631e-24,0.0046046471,7.4118742e-23,0.0046923372
2.825589,0.0048228239,0.0019416107,-9.3130866e-22,0.0046531442,2.5082199e-23,0.0047379841
2.8326698,0.0048700326,0.0020015441,-7.0397938e-22,0.0047057738,-3.2264662e-23,0.0047879033
2.8395278,0.0049212546,0.0020598528,5.0898185e-23,0.0047621759,-4.4383979e-24,0.0048417151
2.8461698,0.0049760775,0.0021165383,-5.1196428e-22,0.0048219753,4.718308e-23,0.0048990263
2.8526028,0.0050340816,0.0021715933,-1.194898e-21,0.0048847852,-4.8079999e-24,0.0049594331
2.8588334,0.0050948419,0.002225003,-3.6488925e-22,0.0049502114,-4.2425794e-23,0.0050225264
2.8648678,0.005157934,0.0022767441,-2.3657376e-23,0.0050178563,-4.8152655e-24,0.0050878949
2.8707123,0.0052229369,0.0023267871,-2.1265039e-22,0.005087323,-6.666457e-23,0.0051551296
2.8763729,0.005289438,0.0023750996,1.5798376e-21,0.0051582182,-5.2609993e-23,0.0052238279
2.8818553,0.0053570363,0.0024216474,1.0889388e-21,0.0052301559,5.8949332e-23,0.0052935974
2.8871651,0.0054253461,0.002466394,7.589568e-23,0.005302769,2.8999326e-23,0.005364059
2.8923079,0.0054940003,0.0025100074,3.1881896e-22,0.005375698,1.2037151e-23,0.0054348508
2.8972887,0.0055626729,0.0025538348,-1.8744764e-22,0.0054486386,1.3144815e-23,0.0055056522
2.9021128,0.0056310013,0.0025923856,-9.0787135e-24,0.005521555,-2.9117264e-23,0.0055762676
2.9067851,0.005698833,0.0026251329,4.503333e-22,0.0055943074,3.5001093e-24,0.0056465683
2.9113102,0.0057659714,0.0026575464,-6.2172619e-23,0.005666336,4.7586991e-23,0.0057161601
2.915693,0.0058317675,0.0026892913,-5.7048654e-22,0.0057368743,-1.0715525e-23,0.0057843244
2.9199378,0.0058954271,0.0027199967,1.2634169e-22,0.0058050984,-6.4557747e-23,0.0058502636
2.924049,0.005956188,0.002749319,7.4225647e-22,0.0058702862,-8.7029692e-24,0.0059132373
2.9280309,0.0060134033,0.0027769696,3.1302672e-22,0.0059318432,2.5020195e-23,0.0059726232
2.9318874,0.0060665611,0.0028027208,2.1980102e-22,0.0059893009,-5.6456054e-25,0.0060279305
2.9356225,0.0061152743,0.0028264011,3.1028313e-22,0.006042305,1.1434411e-23,0.0060787897
2.93924,0.0061592668,0.0028478856,1.3436527e-23,0.0060905978,3.2033568e-23,0.0061249317
2.9427437,0.0061983394,0.0028670864,-2.8549239e-22,0.0061339976,2.1138035e-23,0.0061661668
2.9461371,0.0062323571,0.0028839446,-3.7433887e-22,0.006172381,-1.5468898e-23,0.006202368
2.9494237,0.0062612502,0.002898424,-1.258911e-23,0.0062056661,-3.5651839e-23,0.0062334577
2.9526069,0.0062849908,0.0029105061,2.6307404e-22,0.0062338022,-1.1156546e-23,0.0062593961
2.9556899,0.0063035805,0.002920186,1.8716599e-22,0.0062567654,1.2545019e-23,0.006280173
2.9586758,0.0063170475,0.0029274698,4.4715944e-23,0.006274554,2.394089e-23,0.006295801
2.9615678,0.0063254345,0.0029323708,-2.1227435e-22,0.0062871836,4.7197222e-24,0.006306309
2.9643687,0.0063287917,0.0029349079,-4.4253515e-23,0.0062946834,-2.2391954e-23,0.0063117374
2.9670815,0.0063271755,0.002935103,1.5114926e-22,0.0062970914,-4.696911e-24,0.0063121333
2.9697089,0.0063206444,0.0029329797,3.6486432e-23,0.0062944495,9.2263644e-24,0.0063075469
2.9722536,0.0063092541,0.0029285606,1.3853936e-24,0.0062867997,7.1807429e-24,0.006298027
2.9747182,0.0062930531,0.0029218665,-7.1713305e-23,0.0062741813,2.9192455e-24,0.0062836173
2.9771053,0.0062720793,0.0029129139,-4.4596326e-23,0.0062566282,-2.5942554e-24,0.0062643536
2.9794172,0.0062463562,0.0029017144,-3.0271632e-23,0.0062341664,-5.0518487e-25,0.0062402604
2.9816563,0.0062158925,0.002888273,-3.5383506e-23,0.0062068091,3.6157417e-24,0.006211348
2.983825,0.0061806848,0.0028725867,-7.7485539e-23,0.0061745435,2.0004531e-24,0.0061776098
2.9859254,0.0061407256,0.0028546424,-6.2288311e-23,0.0061373077,-6.2884015e-24,0.0061390174
2.9879597,0.006096006,0.0028342171,8.8184806e-24,0.0060949949,-3.8320881e-25,0.0060955082
2.98993,0.0060464641,0.0028109544,-4.7741483e-23,0.0060474738,3.1862661e-24,0.0060469732
2.9918382,0.0059919277,0.0027851678,-3.2768081e-23,0.0059945989,-3.9291897e-24,0.0059932606
2.9936864,0.005932159,0.0027572489,2.7320589e-24,0.005936219,-3.9070721e-24,0.0059341862
2.9954764,0.0058669138,0.0027270373,1.5196666e-23,0.0058721534,-2.2617235e-24,0.0058695331
2.9972101,0.0057959319,0.002694372,2.6740186e-23,0.0058021617,-2.7379902e-24,0.0057990481
2.9988893,0.0057189151,0.0026591125,4.1498043e-23,0.0057259551,-9.762845e-26,0.0057224372
3.0005155,0.005635512,0.0026212656,2.5859902e-23,0.0056432126,4.4602346e-24,0.0056393606
3.0020906,0.0055452857,0.0025802235,-6.3683057e-24,0.0055535375,4.7958341e-24,0.0055494071
3.0036161,0.0054477229,0.0025352117,-2.2026214e-23,0.0054564235,2.3345718e-24,0.0054520728
3.0050936,0.0053422689,0.0024862502,-2.6422798e-23,0.0053512812,-3.4986991e-24,0.0053467774
3.0065246,0.0052283035,0.0024332905,8.9686839e-24,0.005237456,-2.5482904e-24,0.0052328809
3.0079106,0.0051051272,0.0023760101,3.1605196e-26,0.0051142474,1.6066444e-24,0.0051096875
3.0092529,0.0049719804,0.0023140637,-4.7509702e-24,0.0049809178,-1.2611288e-24,0.0049764492
3.010553,0.0048280585,0.0022470766,7.9135216e-24,0.0048366881,-9.1630535e-25,0.0048323733
3.0118121,0.0046725293,0.0021746537,2.8449592e-24,0.0046807497,2.8282816e-25,0.0046766395
3.0130317,0.0045045608,0.0020964226,4.1924669e-24,0.0045122922,-4.3393638e-25,0.0045084265
3.0142128,0.0043233586,0.0020120312,4.5939055e-24,0.0043305407,1.4428505e-24,0.0043269496
3.0153568,0.0041282085,0.0019211471,-3.9639021e-24,0.0041347979,7.6774229e-25,0.0041315032
3.0164647,0.0039184808,0.001823479,-8.5275963e-25,0.0039244487,-8.7516584e-25,0.0039214649
3.0175378,0.0036935097,0.0017164605,1.084325e-24,0.0036988343,-2.9791301e-25,0.0036961723
3.0185772,0.0034527835,0.0015987322,5.1969459e-25,0.0034574551,-1.1082603e-24,0.0034551194
3.0195838,0.0031963726,0.0014716139,4.5634795e-24,0.0032004018,-7.6879621e-25,0.0031983872
3.0205587,0.0029251442,0.0013356701,3.0530652e-24,0.002928556,9.1265273e-25,0.0029268502
3.0215029,0.0026409957,0.0011919215,2.8341436e-25,0.0026438266,9.8974714e-25,0.0026424112
3.0224174,0.0023471576,0.0010422957,-8.2107312e-25,0.0023494542,-3.7827751e-26,0.0023483059
3.0233032,0.002048436,0.00088982998,1.4677683e-25,0.0020502531,-4.4025342e-25,0.0020493445
3.024161,0.0017512645,0.00073873015,4.8398888e-25,0.001752663,7.6601041e-26,0.0017519637
3.0249919,0.001463404,0.00059413757,-1.140515e-26,0.0014644488,1.6314684e-25,0.0014639264
3.0257966,0.0011931753,0.00046148827,-4.7876401e-26,0.0011939311,-1.9123535e-25,0.0011935531
3.026576,0.00094827375,0.00034552367,2.5258353e-25,0.00094880247,-7.8759666e-26,0.00094853807
3.0273308,0.00073447849,0.00024927087,9.6538983e-26,0.00073483582,1.5094088e-25,0.00073465714
3.0280619,0.00055472579,0.00017345201,-6.1140856e-26,0.00055495903,8.1193231e-26,0.00055484241
3.02877,0.00040890825,0.0001166064,-4.8181455e-26,0.0004090552,-9.3937041e-27,0.00040898173
3.0294558,0.00029440564,7.5810059e-05,-1.7204033e-26,0.00029449486,-2.8168085e-26,0.00029445026
3.03012,0.00020702773,4.7589939e-05,5.8884696e-27,0.0002070797,-1.2840008e-26,0.00020705372
3.0307633,0.00014197442,2.8657331e-05,4.1073245e-27,0.0001420032,3.1182856e-27,0.00014198881
3.0313863,9.4564615e-05,1.6308994e-05,2.8841641e-29,9.4579503e-05,4.4044014e-27,9.4572059e-05
3.0319898,6.0673484e-05,8.5350071e-06,-1.248401e-27,6.0680462e-05,1.0016259e-27,6.0676973e-05
3.0325742,3.6930219e-05,3.9309051e-06,-4.0277016e-28,3.6933045e-05,-4.6565708e-28,3.6931632e-05
3.0331403,2.0752136e-05,1.4967873e-06,-4.6050454e-29,2.0753061e-05,-3.1416478e-28,2.0752599e-05
3.0336885,1.0265324e-05,4.3422813e-07,1.3998052e-29,1.0265548e-05,-1.0213873e-28,1.0265436e-05
3.0342195,4.1246482e-06,8.614924e-08,8.1114971e-30,4.1246834e-06,8.8925724e-30,4.1246658e-06
3.0347338,1.2447636e-06,1.0081442e-08,-2.3495353e-31,1.2447666e-06,1.13851e-30,1.2447651e-06
3.0352319,8.1797276e-07,8.5338226e-10,1.6529368e-32,8.1797288e-07,4.1587893e-32,8.1797282e-07
3.0357122,3.5526861e-09,3.6372245e-12,7.0465163e-35,3.5526866e-09,1.7748249e-34,3.5526863e-09
