/*--------------------------------*- C++ -*----------------------------------*\
| =========                 |                                                 |
| \\      /  F ield         | OpenFOAM: The Open Source CFD Toolbox           |
|  \\    /   O peration     | Version:  2.4.0                                 |
|   \\  /    A nd           | Web:      www.OpenFOAM.org                      |
|    \\/     M anipulation  |                                                 |
\*---------------------------------------------------------------------------*/
FoamFile
{
    version     2.0;
    format      ascii;
    class       volScalarField;
    location    "330";
    object      nut;
}
// * * * * * * * * * * * * * * * * * * * * * * * * * * * * * * * * * * * * * //

dimensions      [0 2 -1 0 0 0 0];

internalField   nonuniform List<scalar> 
78300
(
2.9460784e-12
1.5967371e-12
4.6062698e-12
2.8287868e-12
3.5233785e-12
1.1293938e-12
4.6892231e-13
5.1388543e-14
2.6712534e-13
5.6738382e-13
3.8722029e-13
3.0547342e-13
1.6895424e-13
1.3380283e-13
9.0953616e-14
8.2020041e-14
6.4394325e-14
6.1436317e-14
5.2275034e-14
4.9136426e-14
4.2875773e-14
3.9704565e-14
3.5354175e-14
3.3815046e-14
3.2045795e-14
3.1820582e-14
3.1656667e-14
3.2715394e-14
3.4216489e-14
3.6939155e-14
4.0531537e-14
4.5573733e-14
5.1954432e-14
6.0143046e-14
6.9997864e-14
8.1559213e-14
9.3738758e-14
1.0669619e-13
1.2055094e-13
1.3506241e-13
1.5009098e-13
1.6515797e-13
1.7995622e-13
1.9373752e-13
2.0617498e-13
2.1626037e-13
2.2437783e-13
2.2977874e-13
2.3714906e-13
2.4161676e-13
2.4765536e-13
2.47758e-13
2.4787213e-13
2.4474733e-13
2.3948801e-13
2.2452349e-13
2.1380632e-13
1.9295318e-13
1.8090066e-13
1.5823345e-13
1.5828264e-13
1.4834945e-13
2.1214274e-13
3.7591164e-13
5.1173625e-13
6.6451791e-13
8.0731491e-13
9.6635114e-13
1.1065743e-12
1.2508341e-12
1.3827082e-12
1.5149721e-12
1.6369265e-12
1.7572786e-12
1.8691448e-12
1.9782644e-12
2.0801403e-12
2.1782015e-12
2.2684098e-12
2.3437696e-12
2.4237127e-12
2.4990412e-12
2.5686404e-12
2.6334908e-12
2.6928525e-12
2.7473439e-12
2.7965086e-12
2.8407999e-12
2.8799696e-12
2.9144282e-12
2.9439144e-12
2.9684234e-12
3.0062581e-12
3.0247608e-12
3.0393555e-12
3.0501697e-12
3.0549413e-12
3.0395522e-12
3.038036e-12
3.0333937e-12
3.0263015e-12
3.0172783e-12
3.0074307e-12
2.9975438e-12
2.989268e-12
2.9812372e-12
2.9716452e-12
2.9461658e-12
2.9178136e-12
2.8855505e-12
2.8511887e-12
2.8148601e-12
2.7769907e-12
2.7376504e-12
2.6970802e-12
2.6553565e-12
2.6126532e-12
2.5690537e-12
2.5246974e-12
2.4796684e-12
2.434081e-12
2.388012e-12
2.3415572e-12
2.2947909e-12
2.2477986e-12
2.2006481e-12
2.1534114e-12
2.1061509e-12
2.0589273e-12
2.0117967e-12
1.9648074e-12
1.918008e-12
1.8714397e-12
1.8251462e-12
1.7791625e-12
1.7335253e-12
1.6882623e-12
1.6434064e-12
1.5989834e-12
1.5550232e-12
1.5115448e-12
1.4685704e-12
1.4261177e-12
1.384203e-12
1.3428397e-12
1.3020407e-12
1.2618195e-12
1.2221918e-12
1.1831719e-12
1.1447747e-12
1.1070094e-12
1.0698908e-12
1.0334271e-12
9.9763067e-13
9.6250253e-13
9.2805242e-13
8.9428205e-13
8.6120451e-13
8.2881525e-13
7.9712676e-13
7.6612879e-13
7.3582964e-13
7.0621777e-13
6.773146e-13
6.4910695e-13
6.2163655e-13
5.9487134e-13
5.6884455e-13
5.4350224e-13
5.1889384e-13
4.9496228e-13
4.7178179e-13
4.4927461e-13
4.2753075e-13
4.0643587e-13
3.861044e-13
3.663881e-13
3.4744558e-13
3.2908607e-13
3.1151646e-13
2.9448602e-13
2.78263e-13
2.6252612e-13
2.4762605e-13
2.3315324e-13
2.1955701e-13
2.0631901e-13
1.9401016e-13
1.8197744e-13
1.7094541e-13
1.6009514e-13
1.5033308e-13
1.4063524e-13
1.3213254e-13
1.2355688e-13
1.1631788e-13
1.0885076e-13
1.0290768e-13
9.6562756e-14
9.1985231e-14
8.6812551e-14
8.3723232e-14
7.9836285e-14
7.8440026e-14
7.6051401e-14
7.6617899e-14
7.5602295e-14
7.7401036e-14
7.9433357e-14
8.0146876e-14
8.1576103e-14
7.9357763e-14
7.7580402e-14
7.2658221e-14
6.7992341e-14
6.1114706e-14
5.4462763e-14
4.6589298e-14
3.9116408e-14
3.1363806e-14
2.4368477e-14
1.792415e-14
1.263565e-14
9.6390659e-15
1.499664e-14
2.3728351e-14
3.6769429e-14
5.5632813e-14
8.1060799e-14
1.1453132e-13
1.5639677e-13
2.0790651e-13
2.6865546e-13
3.3909294e-13
4.1611001e-13
4.9508893e-13
5.7670747e-13
6.6141042e-13
7.4731795e-13
8.3601672e-13
9.3600113e-13
1.0112324e-12
1.1028942e-12
1.2125638e-12
1.3443344e-12
1.498188e-12
1.6900926e-12
1.9344089e-12
2.2925188e-12
2.7228339e-12
3.2970591e-12
3.9766946e-12
4.9137175e-12
6.0297375e-12
7.6428413e-12
9.6196532e-12
1.257745e-11
1.6268213e-11
2.1732319e-11
2.7354376e-11
3.3834307e-11
3.4241842e-11
3.0717456e-11
2.2462153e-11
1.6373734e-11
8.8358148e-12
6.1919202e-12
2.3666385e-12
2.6405414e-12
6.2052703e-13
2.2498746e-12
4.355555e-12
3.4232723e-12
5.0915732e-12
1.6175263e-11
2.7214624e-12
1.5533112e-12
7.0143138e-13
1.4672176e-12
6.437213e-13
4.2206371e-13
3.1835365e-13
1.7639678e-13
1.3723226e-13
9.4811124e-14
8.5200796e-14
6.814608e-14
6.5038504e-14
5.6389001e-14
5.3399515e-14
4.7600805e-14
4.472012e-14
4.0843519e-14
3.9723326e-14
3.8561658e-14
3.8972808e-14
3.9597749e-14
4.1524859e-14
4.4068028e-14
4.7979698e-14
5.2983049e-14
5.9663317e-14
6.7977637e-14
7.8422238e-14
9.0923908e-14
1.0555109e-13
1.212858e-13
1.3832974e-13
1.5691825e-13
1.7691982e-13
1.98278e-13
2.2059549e-13
2.4358008e-13
2.6641799e-13
2.8845565e-13
3.0767073e-13
3.1715435e-13
1.7200176e-13
6.6935769e-13
1.8869617e-13
7.7142454e-13
2.0382083e-13
2.0929951e-13
9.3618445e-13
9.9527722e-13
2.2006286e-13
5.0087917e-13
4.988437e-13
4.9793331e-13
4.8131809e-13
4.8029572e-13
4.6689935e-13
5.2437469e-13
1.4890006e-12
1.8231529e-12
5.8717299e-13
7.072842e-13
2.9470351e-12
3.3014867e-12
3.6551319e-12
3.9921206e-12
4.3269965e-12
4.6482146e-12
4.9662015e-12
5.2741731e-12
5.580125e-12
5.8816412e-12
6.1822829e-12
6.3116616e-12
1.9654466e-12
2.0335719e-12
2.0997166e-12
2.161756e-12
2.2203303e-12
2.2749254e-12
2.3259413e-12
2.3730504e-12
2.4165455e-12
2.4562834e-12
2.492743e-12
2.5270516e-12
2.5851501e-12
9.2985716e-12
9.4728007e-12
9.6439284e-12
9.81825e-12
9.6867777e-12
2.6797643e-12
2.6881752e-12
2.6970964e-12
2.7049296e-12
2.712594e-12
2.7219947e-12
2.7362339e-12
2.7637517e-12
2.8459083e-12
5.6978037e-12
5.7294777e-12
5.7403375e-12
5.7457298e-12
5.7475688e-12
5.7463358e-12
5.7424926e-12
5.7361717e-12
5.7276143e-12
5.716919e-12
5.7042568e-12
5.6897215e-12
5.6734522e-12
5.6555388e-12
5.6360976e-12
5.6152093e-12
5.5929713e-12
5.5694612e-12
5.5447667e-12
5.5189589e-12
5.4921126e-12
5.4642936e-12
5.4355652e-12
5.4059881e-12
5.3756129e-12
5.3444922e-12
5.3126686e-12
5.2801896e-12
5.2470916e-12
5.2134154e-12
5.179188e-12
5.1444456e-12
5.1092125e-12
5.0735239e-12
5.0373965e-12
5.0008569e-12
4.9639201e-12
4.9266067e-12
4.8889265e-12
4.8508953e-12
4.8125223e-12
4.7738266e-12
4.7348203e-12
4.6955227e-12
4.6559427e-12
4.6161001e-12
4.5760031e-12
4.5356705e-12
4.4951041e-12
4.4543165e-12
4.4133103e-12
4.3721016e-12
4.330688e-12
4.2890851e-12
4.2472832e-12
4.2052916e-12
4.1630779e-12
4.1207017e-12
4.0781197e-12
4.0353853e-12
3.9924745e-12
3.949427e-12
3.9061868e-12
3.8627994e-12
3.8192024e-12
3.7754709e-12
3.731527e-12
3.6874704e-12
3.6431787e-12
3.5987712e-12
3.5540742e-12
3.509252e-12
3.4640805e-12
3.4187805e-12
3.3730489e-12
3.3271724e-12
3.2807476e-12
3.2341511e-12
3.1868545e-12
3.1393502e-12
3.0909469e-12
3.042289e-12
2.9924594e-12
2.9423122e-12
2.8906543e-12
2.838596e-12
2.784575e-12
2.7300275e-12
2.6729174e-12
2.6151055e-12
2.5539651e-12
2.4919017e-12
2.4255797e-12
2.3580715e-12
2.285246e-12
2.2109209e-12
2.1302288e-12
2.0476946e-12
1.9580575e-12
1.8664124e-12
1.7621152e-12
1.6643872e-12
1.6347159e-12
1.6395586e-12
1.6616794e-12
1.6829705e-12
1.7043481e-12
1.7206842e-12
1.7332776e-12
1.7404549e-12
1.7432861e-12
1.7417228e-12
1.7367337e-12
1.7291192e-12
1.7201036e-12
1.7115573e-12
1.7075982e-12
1.7105037e-12
1.723837e-12
1.7426868e-12
1.7673396e-12
1.7988482e-12
1.8374677e-12
1.8841008e-12
1.9384881e-12
2.0010674e-12
2.0706188e-12
2.1457021e-12
2.2187529e-12
2.2840651e-12
2.3451587e-12
2.4040265e-12
2.4603848e-12
2.4305633e-12
8.4847974e-12
7.4491711e-12
7.0780474e-12
7.0377473e-12
7.1590604e-12
7.3893426e-12
7.7438891e-12
8.2725072e-12
9.030645e-12
9.9545911e-12
1.1132092e-11
1.2812576e-11
1.5896246e-11
1.8236534e-11
2.1445268e-11
2.5507403e-11
1.4430204e-11
1.867979e-11
2.5373246e-11
3.2328787e-11
3.9711915e-11
4.0616746e-11
3.7147442e-11
2.8722057e-11
4.6224472e-11
3.0231222e-11
2.134081e-11
1.3781172e-11
1.2702156e-11
2.9101967e-12
6.4820183e-12
6.6702362e-11
8.4588597e-12
6.0308488e-11
2.9526188e-10
3.9339866e-11
2.5686405e-11
1.4598367e-11
2.8448249e-11
2.8664993e-12
1.5857844e-12
9.3941247e-13
5.2381515e-13
3.6462779e-13
2.8005884e-13
2.4714747e-13
2.205629e-13
2.1130581e-13
2.0186011e-13
1.9825612e-13
1.9418344e-13
1.9344754e-13
1.9394443e-13
1.9956192e-13
2.0857087e-13
2.2162938e-13
2.3802431e-13
2.5883039e-13
2.8428401e-13
3.1557134e-13
3.5348501e-13
3.9943162e-13
4.5460452e-13
5.2060845e-13
5.9855586e-13
6.8908043e-13
7.9127989e-13
9.0646873e-13
1.0373299e-12
1.1856329e-12
1.35283e-12
1.5396e-12
1.745608e-12
1.9678904e-12
2.1989528e-12
2.4152436e-12
2.4523719e-12
4.245482e-13
9.4758784e-12
5.8440864e-13
1.158695e-11
7.7793616e-13
9.0769867e-13
1.5565029e-11
1.6974321e-11
1.3880703e-12
7.1440305e-12
7.4717938e-12
7.6745644e-12
7.725776e-12
7.7025268e-12
7.5892802e-12
7.6820038e-12
2.4905531e-11
2.9133494e-11
2.8865596e-12
3.3808874e-12
4.339895e-11
4.8014894e-11
5.2477977e-11
5.6878723e-11
6.1219733e-11
6.5513688e-11
6.9774395e-11
7.4025082e-11
7.8301141e-11
8.2664931e-11
8.7108299e-11
8.7670803e-11
8.130795e-12
8.4190869e-12
8.7380203e-12
9.0506944e-12
9.3569516e-12
9.6562937e-12
9.948554e-12
1.0233223e-11
1.0510174e-11
1.077981e-11
1.1046229e-11
1.1335542e-11
1.2156327e-11
1.3809671e-10
1.4174871e-10
1.4536885e-10
1.4916157e-10
1.457559e-10
1.3085424e-11
1.3256259e-11
1.3488762e-11
1.3731509e-11
1.3995667e-11
1.4304024e-11
1.4706748e-11
1.5347259e-11
1.7060914e-11
7.1146701e-11
7.2336115e-11
7.3099334e-11
7.3813822e-11
7.4488465e-11
7.5131465e-11
7.5745178e-11
7.6331234e-11
7.6890532e-11
7.7423834e-11
7.7931717e-11
7.8414717e-11
7.8873333e-11
7.9308012e-11
7.9719207e-11
8.0107289e-11
8.047265e-11
8.0815623e-11
8.1136583e-11
8.1435843e-11
8.1713731e-11
8.1970551e-11
8.2206585e-11
8.2422138e-11
8.2617436e-11
8.279275e-11
8.2948261e-11
8.3084209e-11
8.3200759e-11
8.3298129e-11
8.3376416e-11
8.3435801e-11
8.3476353e-11
8.3498298e-11
8.3501652e-11
8.3486594e-11
8.345313e-11
8.3401416e-11
8.3331418e-11
8.3243252e-11
8.3136867e-11
8.3012402e-11
8.2869854e-11
8.2709379e-11
8.2531003e-11
8.2334885e-11
8.212107e-11
8.1889724e-11
8.1640885e-11
8.137465e-11
8.1091031e-11
8.0790163e-11
8.0472059e-11
8.0136843e-11
7.9784485e-11
7.9415037e-11
7.9028007e-11
7.8624297e-11
7.820321e-11
7.7765149e-11
7.7310174e-11
7.6838556e-11
7.6350041e-11
7.5844734e-11
7.5322305e-11
7.478304e-11
7.4226655e-11
7.3653694e-11
7.3063562e-11
7.2456778e-11
7.1832243e-11
7.1190663e-11
7.0530599e-11
6.9853122e-11
6.9156143e-11
6.8441069e-11
6.7704898e-11
6.6949489e-11
6.6170715e-11
6.5371176e-11
6.4545142e-11
6.3696336e-11
6.2816528e-11
6.1911232e-11
6.0969172e-11
5.9998187e-11
5.8982611e-11
5.7933345e-11
5.6828757e-11
5.5683997e-11
5.4469836e-11
5.3207158e-11
5.1857719e-11
5.0449455e-11
4.8934583e-11
4.734813e-11
4.5635594e-11
4.3836385e-11
4.1898413e-11
3.9861521e-11
3.7575393e-11
3.5384945e-11
3.4693825e-11
3.4788033e-11
3.5251522e-11
3.5764054e-11
3.6270478e-11
3.6723437e-11
3.7088849e-11
3.7375204e-11
3.7561263e-11
3.7672636e-11
3.7700809e-11
3.7676088e-11
3.7606491e-11
3.7537299e-11
3.7548004e-11
3.7667342e-11
3.7862947e-11
3.8118348e-11
3.8422039e-11
3.8769805e-11
3.9153484e-11
3.9565708e-11
3.9994227e-11
4.0425883e-11
4.0841026e-11
4.1198995e-11
4.1391005e-11
4.1376771e-11
4.1221027e-11
4.0959709e-11
4.0618596e-11
3.8140246e-11
1.8067051e-10
1.5388822e-10
1.423385e-10
1.3837953e-10
1.3775625e-10
1.3918087e-10
1.4257702e-10
1.4876272e-10
1.5732022e-10
1.6786333e-10
1.8047731e-10
2.0400283e-10
2.7090022e-10
2.9980392e-10
3.3496332e-10
3.8091352e-10
6.6804491e-11
8.6732112e-11
1.2471453e-10
1.6529161e-10
1.9884698e-10
2.1051841e-10
2.0403324e-10
1.8204948e-10
6.6378651e-10
4.8856368e-10
3.4616888e-10
2.6999681e-10
2.3575874e-10
5.299137e-11
3.6340128e-11
5.3109276e-10
4.5802047e-11
4.7251493e-10
2.6026015e-09
3.1462007e-10
2.0647626e-10
1.1898144e-10
2.5451632e-10
1.9418402e-11
1.034965e-11
5.6773535e-12
3.1721557e-12
2.110925e-12
1.6905211e-12
1.481524e-12
1.3742786e-12
1.3182519e-12
1.2973256e-12
1.2873727e-12
1.2920929e-12
1.3051345e-12
1.3349087e-12
1.3887564e-12
1.4708966e-12
1.5761547e-12
1.7075963e-12
1.8669104e-12
2.0605816e-12
2.2934464e-12
2.5738844e-12
2.9096577e-12
3.3109205e-12
3.787666e-12
4.3495974e-12
5.0015564e-12
5.7428883e-12
6.5830971e-12
7.5427512e-12
8.6374167e-12
9.8795443e-12
1.1277452e-11
1.2830448e-11
1.4519631e-11
1.6287843e-11
1.7953164e-11
1.8084178e-11
2.4808552e-12
7.8323611e-11
3.6150732e-12
9.5654537e-11
4.96467e-12
6.1303942e-12
1.2918596e-10
1.3956084e-10
9.7444251e-12
5.7052257e-11
5.9748864e-11
6.1470564e-11
6.2017115e-11
6.1828115e-11
6.0960877e-11
6.137867e-11
2.0379567e-10
2.3737824e-10
1.9947955e-11
2.3318956e-11
3.5153603e-10
3.888973e-10
4.2459009e-10
4.5989745e-10
4.9470133e-10
5.2922505e-10
5.6348838e-10
5.9776085e-10
6.3227496e-10
6.6760044e-10
7.0360975e-10
7.04973e-10
5.4802636e-11
5.6657603e-11
5.8853696e-11
6.1019444e-11
6.315054e-11
6.5245379e-11
6.7300874e-11
6.9314487e-11
7.1283935e-11
7.3213022e-11
7.5132632e-11
7.726368e-11
8.4051794e-11
1.1195376e-09
1.150662e-09
1.1807327e-09
1.2122318e-09
1.178975e-09
9.0343303e-11
9.1521955e-11
9.3297734e-11
9.5158622e-11
9.7187524e-11
9.9554048e-11
1.0263705e-10
1.0753605e-10
1.2109129e-10
5.6212459e-10
5.7216022e-10
5.785325e-10
5.8453033e-10
5.9021576e-10
5.956548e-10
6.0086419e-10
6.058568e-10
6.1063857e-10
6.1521527e-10
6.1959061e-10
6.2376849e-10
6.2775221e-10
6.3154488e-10
6.3514957e-10
6.3856887e-10
6.4180542e-10
6.4486154e-10
6.4773974e-10
6.5044224e-10
6.5297128e-10
6.5532897e-10
6.575173e-10
6.5953839e-10
6.6139387e-10
6.6308559e-10
6.6461486e-10
6.6598334e-10
6.671922e-10
6.6824303e-10
6.6913637e-10
6.6987363e-10
6.7045514e-10
6.7088259e-10
6.7115603e-10
6.7127676e-10
6.7124474e-10
6.7106114e-10
6.7072561e-10
6.7023902e-10
6.6960091e-10
6.6881225e-10
6.67873e-10
6.6678432e-10
6.6554639e-10
6.641604e-10
6.6262662e-10
6.6094644e-10
6.5912007e-10
6.571483e-10
6.5503118e-10
6.5276973e-10
6.5036411e-10
6.4781525e-10
6.4512295e-10
6.4228761e-10
6.3930524e-10
6.3618312e-10
6.3291561e-10
6.2950577e-10
6.2595428e-10
6.2226308e-10
6.1843054e-10
6.1445713e-10
6.103405e-10
6.060826e-10
6.0168154e-10
5.971412e-10
5.9245742e-10
5.8763377e-10
5.8266217e-10
5.7754739e-10
5.7227888e-10
5.6686413e-10
5.612876e-10
5.5555919e-10
5.4965628e-10
5.4359206e-10
5.373352e-10
5.3090436e-10
5.2425582e-10
5.1741668e-10
5.1032358e-10
5.0301735e-10
4.9541086e-10
4.8756277e-10
4.7935132e-10
4.7085892e-10
4.6191657e-10
4.5263976e-10
4.4279926e-10
4.3255531e-10
4.2160737e-10
4.1017072e-10
3.978696e-10
3.8497419e-10
3.7105691e-10
3.564202e-10
3.4065947e-10
3.2407675e-10
3.0548692e-10
2.876824e-10
2.820697e-10
2.8283522e-10
2.8660604e-10
2.9079727e-10
2.9493721e-10
2.9865984e-10
3.0166778e-10
3.0404499e-10
3.056039e-10
3.0656152e-10
3.0683926e-10
3.0668805e-10
3.0616836e-10
3.0565079e-10
3.0577654e-10
3.0676836e-10
3.083316e-10
3.1036254e-10
3.127602e-10
3.1548304e-10
3.1846032e-10
3.2162259e-10
3.2486806e-10
3.2808378e-10
3.3111015e-10
3.3361164e-10
3.3472545e-10
3.3415501e-10
3.32421e-10
3.2981374e-10
3.2654074e-10
3.0385245e-10
1.6077123e-09
1.3779358e-09
1.2756923e-09
1.2417352e-09
1.2378222e-09
1.2524454e-09
1.2848594e-09
1.342511e-09
1.4203589e-09
1.5151708e-09
1.6264455e-09
1.8520658e-09
2.4728047e-09
2.7282923e-09
3.0291941e-09
3.4313968e-09
4.6417659e-10
5.9585033e-10
8.647447e-10
1.1535408e-09
1.3813583e-09
1.4713965e-09
1.4404763e-09
1.3131976e-09
5.7143385e-09
4.2788564e-09
3.0331971e-09
2.3988344e-09
2.0865172e-09
4.2946409e-10
1.5124556e-10
2.5310337e-09
1.9035858e-10
2.2474961e-09
1.327053e-08
1.5180354e-09
9.9324218e-10
5.7557703e-10
1.3202521e-09
9.0383385e-11
4.8196399e-11
2.6165516e-11
1.4622778e-11
9.6589463e-12
7.7774285e-12
6.8071045e-12
6.3479353e-12
6.0897237e-12
6.0171504e-12
5.9792841e-12
6.0203901e-12
6.0919407e-12
6.2462595e-12
6.5064062e-12
6.9016414e-12
7.4023252e-12
8.0273105e-12
8.781152e-12
9.6969539e-12
1.079538e-11
1.2117289e-11
1.369785e-11
1.5585648e-11
1.7826813e-11
2.0468009e-11
2.3532505e-11
2.70207e-11
3.0977003e-11
3.5498644e-11
4.066059e-11
4.6522696e-11
5.3126301e-11
6.0469736e-11
6.8466477e-11
7.6848176e-11
8.4748084e-11
8.4782672e-11
1.1287663e-11
3.7420546e-10
1.6572518e-11
4.5372642e-10
2.2695966e-11
2.9016539e-11
6.1192781e-10
6.5214421e-10
4.606858e-11
2.7462632e-10
2.8730599e-10
2.9564683e-10
2.9835077e-10
2.974431e-10
2.9328617e-10
2.9529641e-10
9.4918831e-10
1.1030829e-09
9.5223832e-11
1.1161967e-10
1.6339102e-09
1.8092607e-09
1.9749725e-09
2.1389692e-09
2.3006064e-09
2.4610083e-09
2.6202017e-09
2.7794975e-09
2.9399383e-09
3.1042162e-09
3.2715537e-09
3.2606539e-09
2.6108176e-10
2.6952429e-10
2.7999847e-10
2.9033423e-10
3.0050873e-10
3.105151e-10
3.2033771e-10
3.2996485e-10
3.3938499e-10
3.4861691e-10
3.5781503e-10
3.6818891e-10
4.043163e-10
5.2044883e-09
5.3540282e-09
5.494402e-09
5.6410887e-09
5.4528727e-09
4.3128078e-10
4.3645689e-10
4.4499485e-10
4.5394512e-10
4.6370419e-10
4.750857e-10
4.8991227e-10
5.1356608e-10
5.8160033e-10
2.6975078e-09
2.746908e-09
2.7776729e-09
2.8066464e-09
2.8341224e-09
2.8604179e-09
2.8856122e-09
2.9097672e-09
2.9329106e-09
2.9550699e-09
2.9762628e-09
2.9965076e-09
3.0158196e-09
3.034214e-09
3.0517048e-09
3.0683045e-09
3.0840254e-09
3.0988786e-09
3.1128758e-09
3.1260275e-09
3.1383444e-09
3.1498364e-09
3.1605129e-09
3.170384e-09
3.1794573e-09
3.1877416e-09
3.1952431e-09
3.2019698e-09
3.207927e-09
3.2131224e-09
3.2175584e-09
3.2212418e-09
3.2241741e-09
3.2263632e-09
3.2278094e-09
3.2285189e-09
3.2284915e-09
3.2277326e-09
3.2262406e-09
3.2240196e-09
3.2210673e-09
3.2173885e-09
3.2129828e-09
3.2078557e-09
3.2020082e-09
3.1954458e-09
3.18817e-09
3.1801872e-09
3.1714984e-09
3.1621076e-09
3.1520149e-09
3.1412251e-09
3.129739e-09
3.1175612e-09
3.1046905e-09
3.0911289e-09
3.0768573e-09
3.0619105e-09
3.0462616e-09
3.0299251e-09
3.0129042e-09
2.9952085e-09
2.9768299e-09
2.9577707e-09
2.9380199e-09
2.9175864e-09
2.8964614e-09
2.8746634e-09
2.8521726e-09
2.8290059e-09
2.8051247e-09
2.7805519e-09
2.7552367e-09
2.7292148e-09
2.7024123e-09
2.6748758e-09
2.6464974e-09
2.6173397e-09
2.5872528e-09
2.5563256e-09
2.5243486e-09
2.491451e-09
2.4573295e-09
2.4221788e-09
2.3855811e-09
2.3478171e-09
2.3083026e-09
2.267432e-09
2.2243943e-09
2.1797425e-09
2.1323762e-09
2.0830633e-09
2.0303606e-09
1.9753002e-09
1.9160777e-09
1.8539883e-09
1.7869793e-09
1.7164996e-09
1.6406089e-09
1.5607497e-09
1.4712919e-09
1.3857166e-09
1.3588017e-09
1.3624985e-09
1.3806842e-09
1.4009076e-09
1.4208857e-09
1.4388629e-09
1.4533976e-09
1.4648997e-09
1.4724588e-09
1.4771259e-09
1.4785143e-09
1.4778398e-09
1.4753932e-09
1.4729651e-09
1.4736259e-09
1.4784285e-09
1.4859511e-09
1.4957125e-09
1.5072192e-09
1.5202757e-09
1.5345327e-09
1.5496484e-09
1.5651317e-09
1.580435e-09
1.5947929e-09
1.6065688e-09
1.611641e-09
1.6086285e-09
1.6000216e-09
1.5872162e-09
1.5711798e-09
1.4494001e-09
8.2047051e-09
7.1232708e-09
6.6218279e-09
6.4734102e-09
6.4827832e-09
6.5918258e-09
6.7982882e-09
7.1430548e-09
7.5946362e-09
8.132862e-09
8.7497761e-09
1.0063731e-08
1.3547499e-08
1.4951647e-08
1.6540013e-08
1.873727e-08
2.224824e-09
2.7964773e-09
4.049749e-09
5.399115e-09
6.4556042e-09
6.878275e-09
6.7402869e-09
6.1535105e-09
2.8833101e-08
2.1868665e-08
1.5510829e-08
1.2298116e-08
1.0688261e-08
2.0786085e-09
5.0991889e-10
8.787077e-09
6.4177868e-10
7.7952184e-09
4.5677162e-08
5.360477e-09
3.4908047e-09
2.0340656e-09
4.6324996e-09
3.1293613e-10
1.6782813e-10
9.0955344e-11
5.083004e-11
3.350303e-11
2.6985271e-11
2.360587e-11
2.2031492e-11
2.1133911e-11
2.0896851e-11
2.0770895e-11
2.0926091e-11
2.1181709e-11
2.1727064e-11
2.263502e-11
2.4014079e-11
2.5758288e-11
2.793572e-11
3.0559943e-11
3.3747684e-11
3.7569467e-11
4.2168261e-11
4.7665538e-11
5.4230821e-11
6.2024122e-11
7.1208783e-11
8.186713e-11
9.4003729e-11
1.0777191e-10
1.2350955e-10
1.4147936e-10
1.6189117e-10
1.848914e-10
2.1047716e-10
2.38352e-10
2.6758955e-10
2.9514386e-10
2.9351138e-10
4.099209e-11
1.2151765e-09
6.0259126e-11
1.464809e-09
8.2131363e-11
1.0768209e-10
1.9763659e-09
2.0810973e-09
1.7017991e-10
9.6625974e-10
1.0099502e-09
1.0393501e-09
1.0489278e-09
1.0457489e-09
1.0311172e-09
1.0387071e-09
3.0297481e-09
3.5129819e-09
3.5465212e-10
4.1700749e-10
5.2098402e-09
5.7733757e-09
6.3017063e-09
6.8246126e-09
7.3399556e-09
7.851408e-09
8.3589895e-09
8.8669389e-09
9.3785386e-09
9.9024097e-09
1.043551e-08
1.0344881e-08
9.7217809e-10
1.0025993e-09
1.0415889e-09
1.0800694e-09
1.1179516e-09
1.1552108e-09
1.1917878e-09
1.2276394e-09
1.2627221e-09
1.2971066e-09
1.3313956e-09
1.3707144e-09
1.516904e-09
1.6593255e-08
1.7080483e-08
1.7528682e-08
1.7995692e-08
1.7287271e-08
1.6062834e-09
1.6243247e-09
1.6561246e-09
1.6894614e-09
1.7258054e-09
1.7681819e-09
1.823381e-09
1.9118237e-09
2.1743239e-09
9.4710545e-09
9.6474318e-09
9.7556145e-09
9.8575132e-09
9.9541592e-09
1.0046664e-08
1.0135305e-08
1.0220298e-08
1.0301741e-08
1.0379731e-08
1.0454328e-08
1.0525597e-08
1.0593591e-08
1.0658363e-08
1.0719963e-08
1.0778433e-08
1.0833817e-08
1.0886154e-08
1.0935485e-08
1.0981846e-08
1.1025273e-08
1.1065803e-08
1.1103468e-08
1.1138303e-08
1.1170335e-08
1.1199595e-08
1.1226103e-08
1.1249889e-08
1.127097e-08
1.1289374e-08
1.1305109e-08
1.1318198e-08
1.1328647e-08
1.1336483e-08
1.1341707e-08
1.1344342e-08
1.1344385e-08
1.1341857e-08
1.1336751e-08
1.1329081e-08
1.131884e-08
1.1306044e-08
1.1290693e-08
1.1272804e-08
1.1252381e-08
1.1229444e-08
1.1203998e-08
1.1176066e-08
1.114565e-08
1.1112765e-08
1.107741e-08
1.1039604e-08
1.0999348e-08
1.0956659e-08
1.0911532e-08
1.0863974e-08
1.0813918e-08
1.0761488e-08
1.0706586e-08
1.0649265e-08
1.0589537e-08
1.0527433e-08
1.0462927e-08
1.0396026e-08
1.0326692e-08
1.0254955e-08
1.0180785e-08
1.0104247e-08
1.0025271e-08
9.9439157e-09
9.8600471e-09
9.773744e-09
9.6848296e-09
9.5934284e-09
9.4992803e-09
9.40255e-09
9.3028577e-09
9.2004233e-09
9.0947207e-09
8.9860614e-09
8.8737101e-09
8.7581205e-09
8.6382265e-09
8.5147121e-09
8.3861099e-09
8.2534055e-09
8.1145461e-09
7.9709182e-09
7.8196708e-09
7.662748e-09
7.4962822e-09
7.3229725e-09
7.1377463e-09
6.9442314e-09
6.7360851e-09
6.5178608e-09
6.2823427e-09
6.0346237e-09
5.7678831e-09
5.4871788e-09
5.1729571e-09
4.8727473e-09
4.7785579e-09
4.7915875e-09
4.8556105e-09
4.9268137e-09
4.9971628e-09
5.0604885e-09
5.1117137e-09
5.1522739e-09
5.1789697e-09
5.1955026e-09
5.2005045e-09
5.198262e-09
5.1898048e-09
5.1814456e-09
5.1839096e-09
5.2008573e-09
5.2273176e-09
5.2616266e-09
5.3020405e-09
5.3478748e-09
5.397889e-09
5.4508773e-09
5.5051188e-09
5.5586705e-09
5.608833e-09
5.6497928e-09
5.6671605e-09
5.6562316e-09
5.6257161e-09
5.580494e-09
5.5239425e-09
5.046035e-09
2.8262715e-08
2.4964383e-08
2.3338504e-08
2.2948956e-08
2.3125712e-08
2.3671096e-08
2.4584213e-08
2.6018801e-08
2.7841881e-08
2.9967395e-08
3.2339375e-08
3.729515e-08
4.9396329e-08
5.4490894e-08
6.0127688e-08
6.8520788e-08
7.98817e-09
9.7650033e-09
1.4073657e-08
1.8727524e-08
2.2357087e-08
2.3806703e-08
2.3326465e-08
2.1279302e-08
9.8157605e-08
7.5429654e-08
5.3560201e-08
4.2535483e-08
3.6962286e-08
7.3597489e-09
1.5215082e-09
2.4728265e-08
1.9109745e-09
2.1913347e-08
1.1527557e-07
1.5388532e-08
9.9698986e-09
5.8428074e-09
1.1872564e-08
8.8468144e-10
4.7775251e-10
2.588514e-10
1.4464951e-10
9.5219637e-11
7.6650328e-11
6.70231e-11
6.2555546e-11
6.0001032e-11
5.9336681e-11
5.8983532e-11
5.9433382e-11
6.0164359e-11
6.1716971e-11
6.4292444e-11
6.8205579e-11
7.315497e-11
7.9334787e-11
8.6781518e-11
9.5827377e-11
1.0667142e-10
1.1971985e-10
1.3531666e-10
1.5394333e-10
1.760539e-10
2.0211365e-10
2.3236018e-10
2.6681141e-10
3.0589879e-10
3.5057925e-10
4.0160187e-10
4.5956592e-10
5.24892e-10
5.9757859e-10
6.7679614e-10
7.5993863e-10
8.3826108e-10
8.2988873e-10
1.2854544e-10
2.9904182e-09
1.8861503e-10
3.6016312e-09
2.5584769e-10
3.4111658e-10
4.8818973e-09
5.1080823e-09
5.3598118e-10
2.7624662e-09
2.8859818e-09
2.9701706e-09
2.997668e-09
2.9886254e-09
2.9466896e-09
2.9694958e-09
7.4745914e-09
8.65211e-09
1.1218086e-09
1.3225162e-09
1.2843866e-08
1.4236121e-08
1.5537833e-08
1.6826172e-08
1.8095762e-08
1.9355789e-08
2.0606203e-08
2.1857534e-08
2.31178e-08
2.4408297e-08
2.5720575e-08
2.5405403e-08
3.0744435e-09
3.1688673e-09
3.2921118e-09
3.4137568e-09
3.5335123e-09
3.6513007e-09
3.7669349e-09
3.8802782e-09
3.9911917e-09
4.0999019e-09
4.208405e-09
4.3349059e-09
4.8244508e-09
4.0890058e-08
4.2096865e-08
4.3201932e-08
4.4350837e-08
4.2430781e-08
5.0793885e-09
5.1343759e-09
5.234867e-09
5.3402079e-09
5.4550239e-09
5.5888478e-09
5.7631125e-09
6.0434223e-09
6.8927562e-09
2.7029834e-08
2.7537484e-08
2.7846551e-08
2.8137708e-08
2.8413899e-08
2.8678287e-08
2.8931661e-08
2.9174639e-08
2.9407495e-08
2.9630506e-08
2.9843842e-08
3.0047689e-08
3.0242197e-08
3.0427516e-08
3.0603786e-08
3.077113e-08
3.092967e-08
3.1079517e-08
3.1220785e-08
3.135358e-08
3.1478005e-08
3.159416e-08
3.1702139e-08
3.180204e-08
3.1893939e-08
3.1977925e-08
3.2054057e-08
3.2122415e-08
3.218305e-08
3.223604e-08
3.2281409e-08
3.2319221e-08
3.2349494e-08
3.2372304e-08
3.2387653e-08
3.2395604e-08
3.2396152e-08
3.2389353e-08
3.237519e-08
3.2353701e-08
3.2324866e-08
3.2288729e-08
3.2245288e-08
3.2194597e-08
3.2136664e-08
3.2071546e-08
3.1999255e-08
3.1919857e-08
3.183336e-08
3.1739804e-08
3.1639189e-08
3.1531563e-08
3.1416934e-08
3.1295347e-08
3.1166789e-08
3.1031282e-08
3.088863e-08
3.0739187e-08
3.0582678e-08
3.0419252e-08
3.0248938e-08
3.0071832e-08
2.9887856e-08
2.9697029e-08
2.9499241e-08
2.9294583e-08
2.9082966e-08
2.8864573e-08
2.8639209e-08
2.8407039e-08
2.8167681e-08
2.7921359e-08
2.7667569e-08
2.7406665e-08
2.7137907e-08
2.6861763e-08
2.657715e-08
2.6284695e-08
2.5982896e-08
2.5672643e-08
2.5351835e-08
2.5021769e-08
2.4679399e-08
2.4326681e-08
2.395942e-08
2.3580436e-08
2.3183861e-08
2.277366e-08
2.2341685e-08
2.1893496e-08
2.1418037e-08
2.0923028e-08
2.0393969e-08
1.9841235e-08
1.9246696e-08
1.8623372e-08
1.7950637e-08
1.7243054e-08
1.6481123e-08
1.5679257e-08
1.4782263e-08
1.3926294e-08
1.3658405e-08
1.3695705e-08
1.3878871e-08
1.408258e-08
1.4283886e-08
1.4465152e-08
1.461184e-08
1.4728067e-08
1.4804664e-08
1.4852222e-08
1.486683e-08
1.4860764e-08
1.483698e-08
1.4813578e-08
1.4820981e-08
1.4869559e-08
1.4945205e-08
1.5043201e-08
1.5158591e-08
1.5289352e-08
1.5431951e-08
1.5582981e-08
1.5737452e-08
1.5889806e-08
1.6032307e-08
1.6148194e-08
1.6196608e-08
1.6164543e-08
1.6076756e-08
1.5947064e-08
1.5785514e-08
1.4270539e-08
7.1417923e-08
6.4107499e-08
6.0210296e-08
5.946829e-08
6.020092e-08
6.1911076e-08
6.4608782e-08
6.8711324e-08
7.3843581e-08
7.9763366e-08
8.6243245e-08
9.8343823e-08
1.2397781e-07
1.3635117e-07
1.5022041e-07
1.7305778e-07
2.3514025e-08
2.7847462e-08
3.9866505e-08
5.2902444e-08
6.3023038e-08
6.7038436e-08
6.5659031e-08
5.9838539e-08
2.4493177e-07
1.8996132e-07
1.3514312e-07
1.0756273e-07
9.3525412e-08
2.119206e-08
4.1903393e-09
6.0024833e-08
5.2400924e-09
5.3129011e-08
2.3031167e-07
3.8130762e-08
2.459433e-08
1.4495365e-08
2.3901614e-08
2.1659185e-09
1.1780208e-09
6.3830255e-10
3.56666e-10
2.3452773e-10
1.8863734e-10
1.6487768e-10
1.5386561e-10
1.4756619e-10
1.4593489e-10
1.4507114e-10
1.4618543e-10
1.479874e-10
1.5180309e-10
1.5812154e-10
1.6772649e-10
1.7987989e-10
1.9505771e-10
2.1334702e-10
2.3556445e-10
2.6219756e-10
2.9424458e-10
3.3254971e-10
3.7829591e-10
4.3259912e-10
4.9660587e-10
5.7091e-10
6.5556598e-10
7.5162371e-10
8.6142853e-10
9.8682893e-10
1.1293043e-09
1.2899006e-09
1.4686313e-09
1.6634869e-09
1.8681243e-09
2.060798e-09
2.035002e-09
3.6304718e-10
6.0926873e-09
5.304089e-10
7.3729385e-09
7.1606825e-10
9.6372463e-10
1.0077408e-08
1.0548643e-08
1.5041256e-09
6.821477e-09
7.1264542e-09
7.3347758e-09
7.4029714e-09
7.3807474e-09
7.2766756e-09
7.3329632e-09
1.5573742e-08
1.8017488e-08
3.1497531e-09
3.7200865e-09
2.6748271e-08
2.9636585e-08
3.2343829e-08
3.5023133e-08
3.766314e-08
4.0283213e-08
4.288307e-08
4.5484771e-08
4.8104852e-08
5.0787756e-08
5.3515482e-08
5.2823436e-08
8.6276487e-09
8.8910746e-09
9.2367335e-09
9.5779227e-09
9.9138139e-09
1.0244194e-08
1.0568537e-08
1.0886463e-08
1.1197577e-08
1.150252e-08
1.1807158e-08
1.2167955e-08
1.3587477e-08
8.5090517e-08
8.7574858e-08
8.9874324e-08
9.2263157e-08
8.8209427e-08
1.4251202e-08
1.4404345e-08
1.4686129e-08
1.4981474e-08
1.5303281e-08
1.5678167e-08
1.616606e-08
1.6953365e-08
1.9361988e-08
6.6638675e-08
6.7889666e-08
6.8652629e-08
6.9371556e-08
7.0053682e-08
7.0706781e-08
7.1332792e-08
7.1933228e-08
7.2508764e-08
7.3060073e-08
7.3587577e-08
7.4091725e-08
7.4572885e-08
7.5031424e-08
7.5467683e-08
7.5881963e-08
7.627456e-08
7.6645743e-08
7.6995793e-08
7.7324967e-08
7.7633518e-08
7.7921688e-08
7.8189705e-08
7.8437809e-08
7.8666187e-08
7.8875054e-08
7.9064551e-08
7.9234876e-08
7.9386154e-08
7.9518571e-08
7.9632186e-08
7.9727156e-08
7.9803521e-08
7.9861465e-08
7.9900998e-08
7.9922266e-08
7.9925258e-08
7.9910111e-08
7.9876779e-08
7.9825357e-08
7.9755793e-08
7.9668194e-08
7.9562552e-08
7.9439002e-08
7.9297562e-08
7.9138366e-08
7.8961451e-08
7.876697e-08
7.8554946e-08
7.8325476e-08
7.8078557e-08
7.7814311e-08
7.7532749e-08
7.7233987e-08
7.691799e-08
7.6584815e-08
7.6233965e-08
7.586633e-08
7.5481221e-08
7.5079004e-08
7.4659756e-08
7.4223708e-08
7.3770667e-08
7.3300686e-08
7.2813486e-08
7.2309294e-08
7.1787889e-08
7.1249726e-08
7.0694317e-08
7.0122077e-08
6.9532057e-08
6.8924814e-08
6.8299101e-08
6.7655796e-08
6.699307e-08
6.6312079e-08
6.561015e-08
6.4888834e-08
6.4144419e-08
6.3379108e-08
6.2587711e-08
6.1773435e-08
6.0928757e-08
6.0058512e-08
5.9152339e-08
5.8217209e-08
5.7238626e-08
5.6226395e-08
5.5160385e-08
5.4054343e-08
5.2880958e-08
5.1659314e-08
5.035359e-08
4.8989433e-08
4.7522051e-08
4.5983632e-08
4.4323214e-08
4.2576792e-08
4.0696181e-08
3.8716842e-08
3.6504179e-08
3.4395081e-08