/*--------------------------------*- C++ -*----------------------------------*\
| =========                 |                                                 |
| \\      /  F ield         | OpenFOAM: The Open Source CFD Toolbox           |
|  \\    /   O peration     | Version:  2.4.0                                 |
|   \\  /    A nd           | Web:      www.OpenFOAM.org                      |
|    \\/     M anipulation  |                                                 |
\*---------------------------------------------------------------------------*/
FoamFile
{
    version     2.0;
    format      ascii;
    class       volScalarField;
    location    "330";
    object      omega;
}
// * * * * * * * * * * * * * * * * * * * * * * * * * * * * * * * * * * * * * //

dimensions      [0 0 -1 0 0 0 0];

internalField   nonuniform List<scalar> 
78300
(
288636.63
288686.54
288700.32
288833.65
289515.6
291432.02
295479.08
302673.01
314010.37
329813.04
346787.82
362441.63
375829.98
386411.76
393919.79
398343.7
399991.89
399060.36
395721.33
390174.45
382632.29
373308
362413.46
350675.33
339521.98
329123.31
319421.78
310364.21
301901.89
293992.53
286594.56
279672.29
273192.3
267123.9
261439.18
256109.32
250877.53
245350.68
239525.68
233441.11
227134.93
220644.17
214005.21
207254.37
200428.97
193566.99
186709.47
179903.22
173262.16
167044.3
161298.04
156019.07
151204.62
146855.25
142973.85
139564.67
136634.53
134192.24
132247.52
130811.23
129895.27
129511.99
129657.27
129783.85
129783.85
129783.85
129783.85
129783.85
129783.85
129783.85
129783.85
129783.85
129783.85
129783.85
129783.85
129783.85
129783.85
129783.85
129783.85
129783.85
129783.85
129783.85
129783.85
129783.85
129783.85
129783.85
129783.85
129783.85
129783.85
129783.85
129783.85
129783.85
129783.85
129783.85
129783.85
129783.85
129783.85
129783.85
129783.85
129783.85
129783.85
129783.85
129783.85
129783.85
129783.85
129783.85
129783.85
129783.85
129783.85
129783.85
129783.85
129783.85
129783.85
129783.85
129783.85
129783.85
129783.85
129783.85
129783.85
129783.85
129783.85
129783.85
129783.84
129783.85
129783.85
129783.85
129783.85
129783.84
129783.85
129783.85
129783.85
129783.85
129783.85
129783.85
129783.85
129783.85
129783.84
129783.85
129783.85
129783.84
129783.85
129783.85
129783.85
129783.85
129783.85
129783.84
129783.85
129783.85
129783.85
129783.85
129783.85
129783.85
129783.85
129783.85
129783.84
129783.85
129783.85
129783.85
129783.84
129783.85
129783.85
129783.84
129783.85
129783.85
129783.84
129783.85
129783.85
129783.84
129783.85
129783.85
129783.85
129783.85
129783.85
129783.85
129783.85
129783.84
129783.85
129783.85
129783.85
129783.85
129783.85
129783.85
129783.85
129783.85
129783.85
129783.85
129783.85
129783.85
129783.85
129783.85
129783.85
129783.85
129783.85
129783.85
129783.84
129783.85
129783.85
129783.84
129783.85
129783.85
129783.85
129783.85
129783.85
129783.84
129783.85
129783.85
129783.84
129657.28
129512.01
129895.29
130811.3
132247.51
134192.34
136634.64
139564.65
142973.98
146855.32
151204.67
156018.82
161297.58
167043.87
173262.26
179902.7
186708.68
193567.05
200429.57
207253.32
214004.05
220644.49
227134.65
233439.26
239524.1
245352.66
250877.67
256108.08
261440.19
267124.37
273191.43
279670.54
286594.56
293991.4
301901.42
310366.51
319421.34
329122.77
339524.25
350675.48
362412.53
373310.22
382630.09
390168.82
395719.59
399058.71
399989.89
398342.36
393921.49
386411.4
375828.68
362441.02
346789.97
329814.86
314010.09
302672.88
295478.99
291431.81
289515.62
288834.57
288701.21
288686.52
288636.62
56866.777
48872.523
56871.638
48896.181
40304.726
49287.822
49991.626
51201.287
43628.953
53537.206
56295.072
58837.591
61013.17
62733.517
63955.01
64675.649
64945.532
64796.448
64256.428
63357.814
62135.146
60623.001
58855.541
56950.029
55138.696
53449.83
51874.238
50403.235
49028.968
47744.464
46543.005
45418.687
44366.153
43380.395
42456.932
41591.24
40741.93
39844.968
38899.631
37912.209
36888.844
35835.596
34758.473
33663.518
32556.95
31445.271
30353.28
35114.854
24371.087
32547.933
22724.745
30360.09
29394.354
20730.982
20201.306
27067.405
23125.842
22711.279
22382.079
22138.962
21983.942
21919.085
21939.247
18377.702
18380.911
25134.104
25125.279
18371.853
18370.011
18369.824
18369.727
18369.644
18369.603
18369.571
18369.565
18369.567
18369.593
18369.748
18381.951
25135.812
25138.112
25138.064
25138.008
25137.948
25137.88
25137.807
25137.727
25137.64
25137.545
25137.436
25137.107
25117.889
18372.2
18370.722
18370.911
18371.3
18385.41
25133.777
25135.887
25135.608
25135.286
25134.903
25134.421
25133.741
25132.453
25119.075
21962.576
21961.601
21961.599
21961.598
21961.597
21961.595
21961.594
21961.593
21961.592
21961.591
21961.59
21961.589
21961.588
21961.587
21961.586
21961.585
21961.584
21961.583
21961.582
21961.581
21961.58
21961.579
21961.579
21961.578
21961.577
21961.576
21961.575
21961.575
21961.574
21961.573
21961.572
21961.572
21961.571
21961.57
21961.57
21961.569
21961.568
21961.568
21961.567
21961.566
21961.566
21961.565
21961.565
21961.564
21961.564
21961.563
21961.563
21961.562
21961.561
21961.562
21961.561
21961.561
21961.56
21961.56
21961.559
21961.558
21961.559
21961.558
21961.558
21961.558
21961.557
21961.557
21961.557
21961.556
21961.556
21961.556
21961.556
21961.555
21961.556
21961.555
21961.555
21961.555
21961.555
21961.555
21961.555
21961.555
21961.555
21961.555
21961.555
21961.555
21961.555
21961.555
21961.555
21961.555
21961.555
21961.556
21961.556
21961.557
21961.557
21961.558
21961.558
21961.559
21961.56
21961.561
21961.562
21961.563
21961.565
21961.566
21961.568
21961.572
21962.075
21942.384
21919.049
21983.956
22138.989
22382.099
22711.309
23124.742
23620.734
24197.884
24854.9
25591.132
26406.054
27299.589
28272.249
29324.772
30448.542
31600.086
32760.337
33921.296
35075.781
36217.753
37341.019
38438.829
39505.251
40534.391
41519.973
42454.403
43339.366
44241.766
45203.789
46230.698
47327.749
48496.107
40907.374
41976.211
43131.44
44366.887
45690.129
47108.375
48628.168
50226.644
51709.533
52977.298
54001.498
54539.528
54438.628
54508.18
54269.327
53696.402
62658.112
61009.075
58837.533
56296.133
53540.801
50978.264
49141.963
47977.995
40587.437
40282.506
40188.877
40173.428
40173.239
48824.416
23839.005
16195.552
23833.583
16203.871
10554.225
16269.461
16529.9
16913.152
11345.254
17966.043
18879.822
19732.91
20463.233
21041.028
21451.488
21693.934
21785.112
21735.727
21555.173
21254.282
20844.646
20337.887
19745.352
19106.231
18498.481
17931.791
17403.093
16909.497
16448.357
16017.337
15614.193
15236.948
14883.79
14553.043
14243.198
13952.778
13667.927
13367.133
13050.117
12718.969
12375.744
12022.463
11661.131
11293.767
10922.432
10549.373
10207.205
14242.632
6619.5778
13141.673
6207.0857
12227.547
11764.429
5691.618
5577.4331
10784.712
7645.3188
7510.7641
7401.8804
7321.4764
7270.2206
7248.8288
7251.7859
5103.8904
5109.1372
9960.6808
9947.4985
5101.9057
5098.5931
5098.497
5098.4494
5098.4092
5098.3918
5098.3788
5098.3792
5098.3845
5098.4047
5098.5983
5114.4599
9962.4967
9968.0704
9968.0217
9967.9634
9967.9013
9967.8331
9967.7598
9967.6804
9967.5955
9967.5033
9967.3921
9966.825
9932.1774
5101.7113
5099.0519
5099.158
5099.5069
5117.9445
9961.152
9965.9527
9965.7005
9965.407
9965.0596
9964.6238
9964.0083
9962.7112
9941.6756
7263.848
7262.0209
7262.0165
7262.0134
7262.0105
7262.0077
7262.005
7262.0023
7261.9996
7261.9969
7261.9942
7261.9916
7261.9889
7261.9864
7261.9837
7261.9811
7261.9785
7261.9762
7261.9736
7261.9712
7261.9687
7261.9663
7261.964
7261.9615
7261.9593
7261.957
7261.9548
7261.9526
7261.9504
7261.9484
7261.9461
7261.9441
7261.9422
7261.9401
7261.9381
7261.9363
7261.9343
7261.9325
7261.9307
7261.9288
7261.9272
7261.9254
7261.9238
7261.9221
7261.9206
7261.919
7261.9175
7261.9161
7261.9145
7261.9133
7261.9119
7261.9106
7261.9092
7261.9081
7261.9068
7261.9056
7261.9046
7261.9034
7261.9024
7261.9015
7261.9006
7261.8995
7261.8988
7261.898
7261.8971
7261.8964
7261.8958
7261.895
7261.8945
7261.8938
7261.8934
7261.8929
7261.8925
7261.892
7261.8918
7261.8915
7261.8912
7261.8911
7261.8908
7261.8908
7261.8908
7261.8908
7261.891
7261.8911
7261.8914
7261.8919
7261.8922
7261.8929
7261.8935
7261.8945
7261.8955
7261.8967
7261.8983
7261.9001
7261.9021
7261.9046
7261.9074
7261.9109
7261.9144
7261.9202
7262.217
7256.155
7248.7561
7270.2324
7321.5046
7401.9171
7510.8077
7647.5573
7811.6178
8002.5246
8219.8476
8463.3711
8732.9163
9028.4645
9350.176
9698.2933
10069.921
10450.681
10834.291
11218.113
11599.803
11977.347
12348.687
12711.602
13064.128
13404.301
13730.079
14038.971
14331.55
14629.984
14948.184
15287.822
15650.918
16056.274
10702.878
10936.579
11216.458
11515.4
11835.037
12177.087
12542.988
12926.934
13282.28
13585.832
13830.84
13762.666
12648.633
12562.355
12478.124
12364.952
20866.986
20455.795
19733.35
18881.701
17958.62
17100.879
16486.503
16099.978
10651.462
10524.818
10500.531
10497.928
10499.83
16116.841
14185.833
7505.3439
14175.255
7510.9349
3657.6039
7471.2224
7620.5181
7778.9984
3875.5756
8356.7929
8767.1525
9163.3063
9502.6661
9771.3289
9962.2548
10075.151
10117.755
10095.076
10011.451
9871.9383
9681.9038
9446.7567
9171.7275
8874.9463
8592.6348
8329.3825
8083.7755
7854.4781
7640.2551
7440.0264
7252.7479
7077.504
6913.4505
6759.8095
6615.8764
6480.975
6348.6952
6209.0374
6061.8464
5908.0862
5748.7075
5584.6506
5416.8431
5246.2183
5073.7273
4900.5538
4763.6498
8038.9817
2461.2251
7368.0883
2331.9832
6834.1738
6502.8946
2156.3798
2137.6007
5928.1984
3521.9991
3462.5435
3412.3473
3375.292
3351.684
3341.8925
3340.1174
1974.8649
1980.817
5428.7271
5411.3737
1974.4685
1971.1033
1971.0554
1971.0354
1971.0196
1971.016
1971.0148
1971.0209
1971.0295
1971.0481
1971.2575
1987.6617
5430.3531
5437.5737
5437.5286
5437.4725
5437.4136
5437.3499
5437.2825
5437.2102
5437.1336
5437.0511
5436.9449
5436.1186
5390.3846
1974.1504
1971.459
1971.5215
1971.8428
1990.8996
5429.5885
5435.7325
5435.5272
5435.2866
5435.0038
5434.6512
5434.1508
5432.9184
5406.5765
3349.7995
3347.6789
3347.6713
3347.6657
3347.6605
3347.6554
3347.6502
3347.6451
3347.6399
3347.6348
3347.6297
3347.6246
3347.6194
3347.6143
3347.6092
3347.6042
3347.5992
3347.5942
3347.5892
3347.5844
3347.5795
3347.5747
3347.5699
3347.5652
3347.5606
3347.556
3347.5514
3347.547
3347.5426
3347.5382
3347.5339
3347.5297
3347.5256
3347.5215
3347.5174
3347.5135
3347.5096
3347.5058
3347.5021
3347.4984
3347.4948
3347.4912
3347.4878
3347.4844
3347.4811
3347.4778
3347.4747
3347.4717
3347.4686
3347.4657
3347.4629
3347.4601
3347.4574
3347.4549
3347.4523
3347.4498
3347.4475
3347.4452
3347.443
3347.4409
3347.4389
3347.4369
3347.4351
3347.4333
3347.4316
3347.43
3347.4285
3347.427
3347.4257
3347.4244
3347.4232
3347.4221
3347.4211
3347.4201
3347.4193
3347.4186
3347.4179
3347.4173
3347.4169
3347.4165
3347.4162
3347.4161
3347.4161
3347.4162
3347.4165
3347.4169
3347.4174
3347.4183
3347.4192
3347.4204
3347.4219
3347.4237
3347.4259
3347.4285
3347.4316
3347.4353
3347.4395
3347.4446
3347.4499
3347.4575
3347.6527
3345.058
3341.7832
3351.687
3375.3183
3412.3897
3462.5902
3525.636
3601.2755
3689.289
3789.4814
3901.7525
4026.0215
4162.2774
4310.5914
4471.0727
4642.3627
4817.8445
4994.6283
5171.5006
5347.3944
5521.3687
5692.4786
5859.7081
6022.154
6178.8987
6329.0015
6471.3265
6606.17
6743.7578
6890.4766
7047.0849
7214.6664
7425.7648
3704.001
3749.2364
3830.4189
3916.8903
4008.9639
4107.0646
4211.5095
4320.4499
4420.7412
4506.3708
4576.0801
4473.2067
3941.4353
3896.6709
3870.3961
3837.2324
9524.1197
9491.8549
9165.0415
8771.1575
8344.1098
7947.4937
7663.3133
7488.1434
3710.7524
3630.3968
3621.6921
3621.357
3623.3703
7399.1989
9818.4228
4203.6085
9805.0609
4209.3819
1556.6457
4119.5466
4229.0462
4300.6565
1613.8993
4669.5319
4884.3778
5105.0219
5294.1947
5444.1087
5550.6695
5613.7579
5637.6417
5625.1545
5578.6845
5501.0775
5395.3074
5264.4009
5111.2496
4945.9174
4788.5879
4641.8731
4504.9914
4377.2016
4257.812
4146.2239
4041.8531
3944.1901
3852.7644
3767.1425
3686.9288
3611.7502
3538.0511
3460.2578
3378.265
3292.6079
3203.8176
3112.4166
3018.9189
2923.8442
2827.7219
2731.3917
2672.3534
5237.5239
1154.4682
4765.4712
1108.6883
4407.1837
4137.2233
1035.0656
1042.3081
3751.2142
1952.1596
1921.0931
1893.2437
1872.7003
1859.6275
1854.2723
1850.9265
973.13121
979.2411
3402.3939
3382.3606
973.39415
970.44321
970.42426
970.42181
970.42186
970.42823
970.43585
970.44698
970.45943
970.47881
970.69262
986.43942
3403.7194
3411.2608
3411.2202
3411.1673
3411.1127
3411.0544
3410.9935
3410.929
3410.8612
3410.7887
3410.6868
3409.6127
3358.6091
973.12497
970.77021
970.808
971.1064
989.34991
3403.3168
3409.6979
3409.5377
3409.3482
3409.1278
3408.8552
3408.4651
3407.2951
3378.4972
1859.5182
1857.4265
1857.4153
1857.4064
1857.398
1857.3897
1857.3813
1857.3729
1857.3645
1857.356
1857.3476
1857.3391
1857.3306
1857.3222
1857.3137
1857.3053
1857.2969
1857.2886
1857.2803
1857.272
1857.2639
1857.2558
1857.2478
1857.2398
1857.2319
1857.2242
1857.2165
1857.2089
1857.2014
1857.194
1857.1867
1857.1795
1857.1725
1857.1655
1857.1586
1857.1519
1857.1453
1857.1387
1857.1324
1857.1261
1857.1199
1857.1139
1857.108
1857.1022
1857.0965
1857.091
1857.0856
1857.0803
1857.0752
1857.0702
1857.0653
1857.0606
1857.0559
1857.0515
1857.0471
1857.0429
1857.0389
1857.0349
1857.0311
1857.0275
1857.024
1857.0206
1857.0174
1857.0143
1857.0114
1857.0086
1857.006
1857.0034
1857.0011
1856.9988
1856.9968
1856.9948
1856.993
1856.9913
1856.9898
1856.9885
1856.9872
1856.9862
1856.9853
1856.9845
1856.9839
1856.9835
1856.9833
1856.9833
1856.9835
1856.984
1856.9846
1856.9856
1856.9868
1856.9884
1856.9905
1856.9929
1856.9959
1856.9994
1857.0036
1857.0086
1857.0144
1857.0212
1857.0285
1857.0381
1857.181
1855.8568
1854.1146
1859.6106
1872.7153
1893.2798
1921.1298
1956.1074
1998.072
2046.9024
2102.4897
2164.7768
2233.7209
2309.3137
2391.5946
2480.622
2575.6325
2672.9554
2770.9931
2869.0768
2966.6189
3063.0924
3157.9769
3250.7108
3340.7925
3427.7154
3510.9528
3589.8857
3664.6927
3741.045
3822.4742
3909.3872
4002.4691
4142.9709
1573.152
1567.8294
1592.1321
1617.8309
1644.8301
1673.177
1702.859
1733.2058
1760.8164
1784.61
1805.1054
1731.3414
1467.1829
1444.5655
1437.8094
1425.9773
5151.6011
5280.3362
5108.6383
4891.2885
4655.2838
4436.0634
4278.6794
4185.0058
1593.7826
1534.8212
1530.5379
1530.3555
1531.9594
4077.0096
7228.9509
2652.433
7214.8073
2659.2053
809.14152
2542.374
2632.6666
2663.8751
817.86227
2924.7898
3046.5096
3184.0453
3302.0885
3395.7807
3462.3803
3501.8685
3516.8635
3509.177
3480.266
3431.9377
3366.0279
3284.4416
3188.9664
3085.8574
2987.6994
2896.1602
2810.7558
2731.0264
2656.5377
2586.918
2521.8016
2460.8718
2403.8334
2350.4161
2300.3711
2253.4679
2207.4979
2158.9841
2107.8503
2054.4282
1999.0486
1942.0371
1883.7138
1824.4027
1764.4341
1704.5289
1680.1365
3631.76
663.20308
3281.4485
644.99049
3027.502
2802.3496
606.63832
620.3707
2529.0704
1213.3269
1195.2086
1177.882
1165.119
1157.0146
1153.7676
1150.1145
583.70571
589.73067
2273.0685
2252.1891
584.21605
581.76868
581.76862
581.77866
581.79022
581.80459
581.81951
581.83573
581.85241
581.87389
582.08852
596.7946
2274.0808
2281.0798
2281.0436
2280.9948
2280.9448
2280.8922
2280.8377
2280.7804
2280.7209
2280.6574
2280.5581
2279.2812
2228.2731
584.05983
582.10854
582.13156
582.4128
599.38676
2273.8614
2279.7614
2279.6387
2279.4923
2279.3243
2279.1188
2278.8203
2277.703
2249.0096
1157.701
1155.8111
1155.7956
1155.7827
1155.7703
1155.758
1155.7456
1155.7331
1155.7205
1155.7079
1155.6952
1155.6825
1155.6698
1155.6571
1155.6445
1155.6318
1155.6192
1155.6066
1155.5941
1155.5817
1155.5694
1155.5572
1155.5451
1155.5331
1155.5212
1155.5094
1155.4978
1155.4863
1155.475
1155.4638
1155.4527
1155.4418
1155.4311
1155.4205
1155.4101
1155.3998
1155.3898
1155.3799
1155.3702
1155.3606
1155.3513
1155.3421
1155.3331
1155.3243
1155.3157
1155.3073
1155.2991
1155.2912
1155.2833
1155.2758
1155.2683
1155.2612
1155.2542
1155.2474
1155.2408
1155.2344
1155.2283
1155.2223
1155.2166
1155.2111
1155.2058
1155.2007
1155.1958
1155.1911
1155.1867
1155.1824
1155.1784
1155.1746
1155.1711
1155.1677
1155.1645
1155.1616
1155.1589
1155.1563
1155.154
1155.152
1155.1501
1155.1485
1155.1471
1155.1459
1155.145
1155.1443
1155.1439
1155.1438
1155.144
1155.1445
1155.1453
1155.1465
1155.1482
1155.1502
1155.1529
1155.156
1155.16
1155.1646
1155.1702
1155.1766
1155.1842
1155.1931
1155.2027
1155.2145
1155.3275
1154.5806
1153.5433
1156.9627
1165.1091
1177.8985
1195.2211
1216.978
1243.0821
1273.4576
1308.0365
1346.7825
1389.6698
1436.6922
1487.8737
1543.2494
1602.3387
1662.8571
1723.8163
1784.8025
1845.4522
1905.4373
1964.4353
2022.0975
2078.1115
2132.1636
2183.9271
2233.0236
2279.5773
2327.107
2377.796
2431.8966
2489.8428
2597.4617
814.44914
795.24915
801.33495
807.70898
814.15927
820.69066
827.29359
833.7687
839.61716
844.9653
850.74721
807.18141
678.4131
666.4461
664.66861
656.0138
3083.5068
3285.8115
3189.9491
3056.8156
2911.7274
2776.8275
2679.5557
2624.3619
838.87482
792.70276
789.74904
789.23586
790.33233
2513.0187
5450.2433
1815.0839
5436.9439
1822.9295
512.50398
1692.7425
1770.4798
1781.1616
506.6686
1978.1919
2049.7621
2142.199
2221.639
2284.8357
2329.7487
2356.4284
2366.5879
2361.4924
2342.088
2309.6259
2265.3213
2210.4729
2146.2703
2076.9088
2010.8495
1949.2426
1891.7637
1838.1066
1787.9767
1741.1252
1697.3048
1656.3033
1617.9209
1581.9755
1548.298
1516.7336
1485.8024
1453.1671
1418.7684
1382.8279
1345.5678
1307.2064
1267.9595
1228.0447
1187.6857
1147.559
1139.5501
2589.6751
451.47617
2325.4039
442.60904
2141.712
1955.9199
417.51218
431.53676
1758.6567
814.39892
802.87803
791.23899
782.68588
777.27384
775.1867
771.84669
407.1861
412.96716
1568.3666
1548.2346
407.75908
405.78888
405.80244
405.82225
405.84305
405.86445
405.88594
405.90728
405.9284
405.95258
406.16655
419.65286
1569.1131
1575.1304
1575.0988
1575.0548
1575.0101
1574.9632
1574.9149
1574.8645
1574.8123
1574.7566
1574.6584
1573.2453
1526.0203
407.73448
406.16209
406.17533
406.44262
421.94073
1568.9607
1574.0168
1573.9228
1573.81
1573.6827
1573.5293
1573.301
1572.2309
1545.4887
778.34135
776.72769
776.70737
776.68963
776.67251
776.65533
776.63808
776.62068
776.60319
776.58559
776.56792
776.55022
776.53247
776.51474
776.49701
776.47932
776.46168
776.44413
776.42665
776.40929
776.39204
776.37492
776.35795
776.34113
776.32448
776.308
776.2917
776.27559
776.25968
776.24398
776.22848
776.2132
776.19815
776.18332
776.16874
776.15438
776.14027
776.1264
776.11279
776.09942
776.08633
776.07349
776.06092
776.04862
776.03661
776.02486
776.0134
776.00222
775.99131
775.9807
775.97037
775.96034
775.95058
775.94113
775.93196
775.92306
775.91454
775.90624
775.89828
775.89063
775.88328
775.87622
775.86946
775.86301
775.85686
775.85103
775.84551
775.84029
775.83536
775.83073
775.82641
775.82237
775.81866
775.81522
775.81211
775.80928
775.80678
775.80456
775.8027
775.80112
775.79992
775.79902
775.79855
775.79837
775.79869
775.79934
775.80053
775.80209
775.80434
775.807
775.81055
775.8146
775.81979
775.82563
775.83288
775.84105
775.85083
775.86193
775.87427
775.88872
775.98354
775.53813
774.87245
777.16871
782.6339
791.21934
802.85004
817.45914
834.98857
855.38639
878.6078
904.62744
933.42831
965.00537
999.37518
1036.5595
1076.2328
1116.8584
1157.7777
1198.7152
1239.4265
1279.6938
1319.3004
1358.0105
1395.6179
1431.9126
1466.6749
1499.6558
1530.9489
1562.9094
1596.9939
1633.3716
1672.2885
1760.9068
512.89189
490.98068
491.30945
491.77455
492.11183
492.34716
492.49541
492.48668
492.49406
492.80981
494.42732
471.10913
408.27849
401.44097
400.94966
391.93826
1974.0214
2203.8193
2150.6319
2063.6957
1968.2897
1879.4641
1814.9623
1780.3731
538.60301
500.58098
497.92005
496.97733
497.57667
1670.2096
4140.3449
1316.3876
4129.0291
1325.0601
383.20607
1191.0609
1258.3951
1258.3937
373.48949
1413.0826
1455.5894
1521.1159
1577.5231
1622.5404
1654.5182
1673.5579
1680.8258
1677.2679
1663.5201
1640.5082
1609.0745
1570.1585
1524.5937
1475.3516
1428.4318
1384.6736
1343.8468
1305.7371
1270.1328
1236.8591
1205.7386
1176.6215
1149.365
1123.8394
1099.9231
1077.5057
1055.5402
1032.3702
1007.9474
982.42763
955.96877
928.72508
900.84966
872.49718
843.82875
815.49542
815.11248
1871.7214
347.71847
1672.0083
341.6865
1538.2311
1387.8786
321.84126
334.08745
1244.5387
577.47171
569.56773
561.31208
555.26731
551.4635
550.08799
547.37179
314.72977
320.11859
1103.2961
1085.0289
315.28246
313.73686
313.76111
313.78908
313.81773
313.84554
313.87308
313.89942
313.92494
313.95167
314.16194
326.26257
1103.8513
1108.7508
1108.724
1108.6855
1108.6464
1108.6055
1108.5632
1108.5191
1108.4735
1108.4244
1108.3265
1106.8519
1065.6064
315.38701
314.14871
314.1542
314.40601
328.24472
1103.7017
1107.8045
1107.7311
1107.6429
1107.5454
1107.4301
1107.2523
1106.2296
1082.5193
552.72602
551.40222
551.3764
551.35308
551.33044
551.30769
551.28481
551.26176
551.23857
551.21524
551.19183
551.16836
551.14485
551.12134
551.09785
551.07441
551.05105
551.02778
551.00464
550.98163
550.95878
550.93611
550.91363
550.89135
550.8693
550.84747
550.82589
550.80457
550.7835
550.76271
550.7422
550.72199
550.70207
550.68246
550.66317
550.64419
550.62554
550.60721
550.58923
550.57158
550.55429
550.53735
550.52077
550.50456
550.48872
550.47325
550.45816
550.44344
550.4291
550.41516
550.40159
550.38842
550.37563
550.36324
550.35124
550.33959
550.32847
550.31763
550.30725
550.29728
550.28772
550.27855
550.26979
550.26142
550.25348
550.24595
550.23884
550.23212
550.22581
550.21989
550.21438
550.20925
550.20456
550.20023
550.19633
550.19281
550.18972
550.18701
550.18476
550.18289
550.18152
550.18053
550.18009
550.18005
550.18063
550.18162
550.18334
550.18548
550.18852
550.19205
550.19671
550.20196
550.20865
550.21607
550.22529
550.23554
550.24785
550.26163
550.27708
550.29461
550.37813
550.1063
549.65581
551.28333
555.15274
561.23661
569.4805
579.83679
592.26497
606.7268
623.19142
641.64002
662.06122
684.45022
708.81945
735.18311
763.30809
792.10173
821.10301
850.11812
878.97392
907.51641
935.59252
963.03562
989.70153
1015.4423
1040.1024
1063.5086
1085.7366
1108.4488
1132.6686
1158.5156
1186.0971
1261.4731
381.62667
360.50899
359.28077
358.28077
357.17984
356.01204
354.79745
353.48108
352.31066
351.53908
352.15707
340.39423
308.95231
304.6177
304.50531
294.87197
1329.2345
1559.2304
1532.1658
1473.1441
1407.6176
1346.5722
1301.8322
1279.2554
407.6957
375.01841
372.23546
370.85177
370.95899
1172.6294
3147.511
996.58012
3138.7939
1005.7012
321.06467
874.92394
932.55265
927.15164
310.86321
1051.1185
1076.0667
1124.3754
1166.053
1199.4587
1223.1694
1237.3263
1242.741
1240.161
1230.0195
1213.0385
1189.8204
1161.0772
1127.4152
1091.0266
1056.3361
1023.9828
993.79653
965.62208
939.30002
914.70317
891.69897
870.17724
850.03159
831.16571
813.48795
796.91558
780.67819
763.55447
745.50405
726.64098
707.08157
686.93942
666.32764
645.36061
624.16018
603.34952
606.12314
1363.4309
289.3125
1213.0777
283.68138
1115.4493
996.23292
266.04766
275.86207
891.81381
426.61058
420.80733
414.71098
410.27073
407.50081
406.601
404.63975
258.77525
263.63283
787.65028
771.86764
259.2725
258.09587
258.12892
258.16382
258.19924
258.23277
258.26576
258.29671
258.3262
258.35468
258.55528
269.11364
788.09045
791.91932
791.89749
791.86494
791.83161
791.79642
791.75986
791.72145
791.68149
791.63782
791.53991
790.07545
755.68464
259.49051
258.53952
258.53745
258.76722
270.77882
787.91277
791.10545
791.04573
790.97466
790.89783
790.80882
790.66492
789.69286
769.45764
408.87204
407.81702
407.78506
407.75546
407.72658
407.69756
407.66838
407.63898
407.60942
407.57971
407.5499
407.52003
407.49012
407.46023
407.43037
407.40058
407.3709
407.34136
407.31197
407.28277
407.25377
407.22501
407.1965
407.16825
407.14029
407.11263
407.08529
407.05827
407.0316
407.00528
406.97933
406.95375
406.92856
406.90376
406.87938
406.8554
406.83184
406.80871
406.78601
406.76375
406.74195
406.72061
406.69973
406.67932
406.65939
406.63994
406.62098
406.6025
406.58451
406.56702
406.55003
406.53354
406.51755
406.50208
406.48709
406.47257
406.45875
406.44526
406.43237
406.42001
406.40817
406.39684
406.38603
406.37574
406.36598
406.35675
406.34806
406.33988
406.33222
406.32505
406.31841
406.31227
406.30667
406.30155
406.29698
406.29288
406.28934
406.28628
406.2838
406.2818
406.28043
406.27954
406.27934
406.27963
406.28072
406.28229
406.28477
406.28777
406.29188
406.29657
406.30265
406.30941
406.31794
406.32731
406.33888
406.3516
406.36686
406.38375
406.40279
406.42393
406.50064
406.33632
406.01912
407.21945
410.06998
414.5571
420.63964
428.28219
437.45547
448.13007
460.28401
473.90249
488.97788
505.50568
523.49555
542.95705
563.7159
584.96303
606.36394
627.77603
649.0724
670.13911
690.86441
711.12642
730.81911
749.83457
768.05927
785.36821
801.82576
818.64972
836.58747
855.72998
876.08151
940.88316
318.90871
299.5648
298.1449
297.07407
295.94917
294.80501
293.66067
292.44908
291.36299
290.59538
291.12379
285.64939
269.33937
266.27914
266.30619
256.30014
934.52554
1148.4576
1137.9933
1097.0125
1050.7292
1007.7003
975.84959
960.7573
345.11027
316.17275
313.08002
311.2577
310.85011
859.43293
2388.2049
779.23544
2382.2227
788.39789
287.41571
665.9354
714.21197
706.32935
277.83131
806.46585
820.58958
857.27715
889.02485
914.61403
932.75631
943.62504
947.7882
945.86353
938.14449
925.21974
907.52798
885.63024
859.97959
832.2457
805.79089
781.11876
758.0989
736.61607
716.54608
697.79379
680.25674
663.85174
648.49651
634.11726
620.64251
608.00728
595.6269
582.57424
568.81425
554.43282
539.51837
524.15708
508.43517
492.43981
476.26697
460.50227
464.12718
999.35972
251.15399
886.77434
245.04838
815.42301
722.6576
228.51032
235.79558
646.41034
325.3201
320.80679
316.16484
312.80884
310.7433
310.18546
308.99879
220.0474
224.26497
570.18232
557.09196
220.47813
219.61551
219.65577
219.69639
219.73744
219.77582
219.81338
219.84819
219.88079
219.90957
220.09203
229.00604
570.57096
573.4679
573.4508
573.42406
573.39617
573.36621
573.33462
573.30101
573.26564
573.22608
573.12823
571.73411
544.13947
220.78325
220.07362
220.06302
220.26059
230.34331
570.35099
572.75242
572.70091
572.6407
572.57702
572.50469
572.38135
571.46339
554.69353
312.17907
311.35494
311.3162
311.2797
311.24397
311.20808
311.17201
311.13571
311.09924
311.06261
311.02588
310.9891
310.95231
310.91555
310.87886
310.84228
310.80585
310.76961
310.73357
310.69778
310.66226
310.62703
310.59213
310.55757
310.52337
310.48955
310.45613
310.42313
310.39056
310.35842
310.32675
310.29555
310.26485
310.23463
310.20492
310.17572
310.14706
310.11892
310.09133
310.06428
310.03781
310.0119
309.98658
309.96185
309.93771
309.91416
309.89123
309.8689
309.84718
309.82608
309.8056
309.78575
309.76652
309.74792
309.72995
309.71254
309.69602
309.67989
309.66452
309.64979
309.63572
309.62228
309.60949
309.59734
309.58585
309.57502
309.56485
309.5553
309.54641
309.53813
309.53051
309.5235
309.51715
309.51141
309.50633
309.50184
309.49804
309.49483
309.49234
309.49043
309.4893
309.48874
309.48904
309.48993
309.49178
309.49421
309.49776
309.50191
309.50741
309.51358
309.52143
309.53006
309.54081
309.5525
309.56683
309.58245
309.60112
309.62159
309.64471
309.67001
309.74309
309.64942
309.41899
310.3313
312.49541
315.90745
320.53523
326.35136
333.33427
341.46052
350.71421
361.08304
372.56195
385.14673
398.84519
413.66429
429.46804
445.63964
461.92953
478.22915
494.44272
510.48376
526.26807
541.7039
556.71126
571.20897
585.11204
598.32869
610.91481
623.78863
637.51172
652.15626
667.65681
723.34603
285.20957
267.95704
266.78587
266.05938
265.30453
264.55435
263.82768
263.04517
262.33138
261.83449
262.51102
260.46663
251.71741
249.36843
249.47293
239.3759
684.33213
873.2837
873.29262
844.50017
811.22769
780.54276
757.65503
747.53148
311.66079
285.69373
282.2197
279.96657
278.99389
652.95813
1807.7897
624.50736
1804.2914
633.33047
266.21333
522.62666
561.96722
553.18707
257.61183
633.9838
641.39759
669.90191
694.67252
714.77899
729.01351
737.57502
740.85737
739.39031
733.36657
723.28425
709.46589
692.36791
672.33615
650.67494
629.99977
610.71858
592.72853
575.94257
560.2611
545.6117
531.9128
519.10008
507.10827
495.87935
485.35571
475.48448
465.81082
455.61456
444.86484
433.62764
421.97195
409.96453
397.67273
385.16486
372.51881
360.27241
363.61197
737.38616
222.50904
653.50585
215.70674
601.20739
530.20713
199.93886
204.85807
474.29322
254.41767
250.74647
247.12709
244.53686
242.97476
242.67879
242.21784
190.23767
193.75456
418.92697
408.44458
190.60359
190.00087
190.04676
190.09173
190.13704
190.17908
190.22001
190.25753
190.29193
190.31898
190.47381
197.7304
419.30787
421.44275
421.42972
421.40802
421.3847
421.35897
421.33123
421.30117
421.26902
421.23206
421.13446
419.85534
398.43154
190.96007
190.44698
190.4261
190.58011
198.7356
419.03652
420.79095
420.74325
420.6889
420.6324
420.56908
420.45574
419.59346
406.00188
244.44352
243.807
243.76094
243.71703
243.67396
243.63075
243.58736
243.54375
243.49997
243.45606
243.41207
243.36805
243.32407
243.28016
243.23636
243.19274
243.14931
243.10614
243.06324
243.02066
242.97843
242.93658
242.89513
242.8541
242.81353
242.77343
242.73382
242.69472
242.65616
242.61813
242.58068
242.54379
242.50751
242.47182
242.43676
242.40232
242.36852
242.33537
242.30288
242.27106
242.23992
242.20948
242.17974
242.15071
242.12241
242.09482
242.06797
242.04186
242.01648
241.99185
241.96797
241.94484
241.92248
241.90087
241.88001
241.85984
241.84074
241.82211
241.80438
241.78744
241.77129
241.7559
241.74128
241.72744
241.7144
241.70214
241.69068
241.67997
241.67004
241.66085
241.65245
241.64479
241.63792
241.63177
241.62643
241.62179
241.61798
241.61487
241.61262
241.61107
241.61044
241.61049
241.61157
241.61334
241.61626
241.61986
241.62478
241.63041
241.63763
241.64562
241.6556
241.66646
241.6798
241.69422
241.71172
241.73066
241.75318
241.7777
241.8054
241.83542
241.90726
241.86237
241.69061
242.40022
244.08195
246.73907
250.34567
254.88005
260.32609
266.66446
273.88367
281.97306
290.9294
300.74868
311.43758
323.00157
335.33002
347.94303
360.64971
373.36556
386.01646
398.53557
410.85807
422.91298
434.63908
445.97401
456.85304
467.2076
477.08761
487.20078
497.97833
509.47943
521.59718
569.17832