/*--------------------------------*- C++ -*----------------------------------*\
| =========                 |                                                 |
| \\      /  F ield         | OpenFOAM: The Open Source CFD Toolbox           |
|  \\    /   O peration     | Version:  2.4.0                                 |
|   \\  /    A nd           | Web:      www.OpenFOAM.org                      |
|    \\/     M anipulation  |                                                 |
\*---------------------------------------------------------------------------*/
FoamFile
{
    version     2.0;
    format      ascii;
    class       volScalarField;
    location    "330";
    object      p;
}
// * * * * * * * * * * * * * * * * * * * * * * * * * * * * * * * * * * * * * //

dimensions      [0 2 -2 0 0 0 0];

internalField   nonuniform List<scalar> 
78300
(
-0.12060094
-0.065645846
-0.077310351
-0.063608367
-0.070552503
-0.058962568
-0.054400901
-0.038533247
-0.028905738
-0.01894674
-0.014963339
-0.010433976
-0.0089702366
-0.0068617905
-0.0061517784
-0.0048837523
-0.0043352033
-0.0034434788
-0.0029344208
-0.0022771404
-0.0018606733
-0.0014064188
-0.001132451
-0.00086616611
-0.00070965696
-0.00056852576
-0.00049985294
-0.000447135
-0.00044165153
-0.00044797233
-0.00048112873
-0.00051628633
-0.00055845749
-0.00058760376
-0.00060134607
-0.00058157985
-0.00052844405
-0.00044346402
-0.00032596862
-0.000178272
-7.4564529e-10
0.00020998746
0.00043646612
0.0006833599
0.00093778081
0.0011948669
0.0014370942
0.0016632206
0.0018525752
0.0020197942
0.0021501412
0.0022555601
0.0023119188
0.0023398642
0.0023027762
0.0022284276
0.0020543543
0.001840683
0.001486502
0.0011046942
0.00051175309
-7.1554827e-05
-0.00098306284
-0.0015210839
-0.0019866672
-0.0022584099
-0.0024753548
-0.0025306761
-0.0025180393
-0.0023808425
-0.0021783124
-0.0018754702
-0.0015108658
-0.0010638444
-0.00055945778
1.4460832e-05
0.00064142816
0.0013283789
0.002064143
0.0028474419
0.0036720967
0.0045445404
0.005457595
0.0064112268
0.0074010207
0.0084263258
0.0094837277
0.010572204
0.011689045
0.012832792
0.014001089
0.015191255
0.016411712
0.017661031
0.018928038
0.020214891
0.021520532
0.022836883
0.024164679
0.025510175
0.026869058
0.028240173
0.029622324
0.031015664
0.032419099
0.033831032
0.035245298
0.036663468
0.038091628
0.03952686
0.040968833
0.04241619
0.043868647
0.045325177
0.046785349
0.048248317
0.049713689
0.051180699
0.052649016
0.054117952
0.055587296
0.057056402
0.058524846
0.05999191
0.061457164
0.062920056
0.064380166
0.065836976
0.067290146
0.068739306
0.070184097
0.07162415
0.07305906
0.074488505
0.0759121
0.077329637
0.078740675
0.080145024
0.081542217
0.082932279
0.084314845
0.085689946
0.087057156
0.088416442
0.089767321
0.0911095
0.092442298
0.093765279
0.095077925
0.096379979
0.097671135
0.098951102
0.10021978
0.1014772
0.10272339
0.10395815
0.10518142
0.10639319
0.10759357
0.10878245
0.10995986
0.11112557
0.11227894
0.11341894
0.11454509
0.11565758
0.11675726
0.11784434
0.11891913
0.11998052
0.12102867
0.12206288
0.12308424
0.12409262
0.12508929
0.12607358
0.12704625
0.12800626
0.12895474
0.12989056
0.13081524
0.13172671
0.13262687
0.13351276
0.13438733
0.13524657
0.1360948
0.13692664
0.13774836
0.13855283
0.13934919
0.14012825
0.14090221
0.14165817
0.14241185
0.14314592
0.14388101
0.14459441
0.14531359
0.1460092
0.14671724
0.14739993
0.14810364
0.14878008
0.14948856
0.15016725
0.15089089
0.15157561
0.15231268
0.15302217
0.15379682
0.15455607
0.15537093
0.15617762
0.15703216
0.15788634
0.15878357
0.15968536
0.16062232
0.16155925
0.16251519
0.16345551
0.16439056
0.16528652
0.1661453
0.1669415
0.1676689
0.16830475
0.16882471
0.16920164
0.16941081
0.16942706
0.16923073
0.16881551
0.16816853
0.16731524
0.16626989
0.16502607
0.16357075
0.16191922
0.1599833
0.15772382
0.15523785
0.15240171
0.14918334
0.14543193
0.14110013
0.13592538
0.12972381
0.12192811
0.11282579
0.10156425
0.088733972
0.072785995
0.055057523
0.032840461
0.0087208901
-0.021520879
-0.053084487
-0.093273911
-0.13174477
-0.17548781
-0.20014787
-0.22199289
-0.22066725
-0.22527889
-0.2062509
-0.20570666
-0.17771337
-0.18235029
-0.12060518
-0.065649561
-0.077312226
-0.06360806
-0.070546768
-0.058965662
-0.054405325
-0.038556625
-0.028928115
-0.018971622
-0.01498051
-0.010450071
-0.0089793469
-0.0068704481
-0.0061570817
-0.0048895126
-0.0043391786
-0.0034479553
-0.0029378853
-0.0022806495
-0.0018633677
-0.0014088319
-0.0011340873
-0.00086747413
-0.00071045824
-0.00056905972
-0.00050002613
-0.00044710175
-0.00044136973
-0.00044754755
-0.00048056009
-0.00051566234
-0.00055781086
-0.00058702594
-0.00060090269
-0.00058137535
-0.00052847718
-0.00044373398
-0.00032648343
-0.00017899577
-9.6310264e-07
0.00020879473
0.00043515541
0.00068192639
0.00093629265
0.0011933921
0.0014357111
0.0016620065
0.0018515826
0.002019006
0.0021495275
0.0022551539
0.0023116631
0.0023398059
0.0023028365
0.0022286709
0.0020546466
0.0018410963
0.0014868535
0.001105086
0.00051199961
-7.1246714e-05
-0.00098233268
-0.0015201444
-0.0019858991
-0.0022576383
-0.0024746244
-0.0025299353
-0.0025173114
-0.0023801054
-0.0021775821
-0.0018747307
-0.0015101266
-0.0010630968
-0.00055870823
1.5217212e-05
0.00064218712
0.0013291428
0.0020649169
0.0028482135
0.0036728562
0.0045452971
0.0054583479
0.0064119732
0.0074017606
0.0084270558
0.0094844488
0.010572913
0.011689741
0.012833472
0.014001751
0.015191885
0.016412335
0.017661658
0.018928651
0.020215489
0.02152113
0.022837453
0.024165212
0.025510687
0.026869551
0.028240648
0.029622784
0.031016112
0.032419532
0.033831436
0.03524566
0.036663801
0.038091936
0.039527143
0.040969092
0.042416427
0.043868862
0.045325371
0.046785521
0.048248468
0.049713819
0.051180808
0.052649104
0.054118021
0.055587345
0.057056433
0.058524858
0.059991904
0.06145714
0.062920014
0.064380107
0.0658369
0.067290054
0.068739198
0.070183974
0.071624012
0.073058906
0.074488337
0.075911918
0.077329441
0.078740466
0.080144802
0.081541982
0.082932032
0.084314585
0.085689675
0.087056872
0.088416147
0.089767015
0.091109182
0.092441969
0.09376494
0.095077575
0.096379621
0.097670765
0.098950724
0.10021939
0.1014768
0.10272299
0.10395773
0.105181
0.10639276
0.10759313
0.108782
0.10995941
0.11112511
0.11227846
0.11341846
0.1145446
0.11565709
0.11675676
0.11784384
0.11891862
0.11998
0.12102815
0.12206235
0.12308371
0.12409208
0.12508874
0.12607303
0.1270457
0.1280057
0.12895417
0.12988999
0.13081467
0.13172613
0.13262629
0.13351218
0.13438674
0.13524598
0.13609421
0.13692605
0.13774776
0.13855224
0.1393486
0.14012766
0.14090162
0.14165758
0.14241126
0.14314533
0.14388044
0.14459384
0.14531302
0.14600864
0.14671669
0.14739938
0.14810311
0.14877956
0.14948806
0.15016676
0.15089041
0.15157526
0.15231268
0.15302256
0.15379759
0.15455722
0.15537248
0.15617956
0.15703452
0.15788911
0.15878676
0.15968894
0.1606263
0.16156355
0.16251978
0.16346031
0.16439547
0.16529139
0.16615005
0.16694593
0.1676729
0.16830809
0.16882725
0.16920314
0.16941111
0.169426
0.1692282
0.16881145
0.16816299
0.16730843
0.16626179
0.16501664
0.16356002
0.16190705
0.1599688
0.15770707
0.15521879
0.15238002
0.14915834
0.14540304
0.14106609
0.13588479
0.12967356
0.12186861
0.11275448
0.10148215
0.088636994
0.072676675
0.054929997
0.032699589
0.0085594696
-0.02168963
-0.053267235
-0.093444977
-0.13190044
-0.17558017
-0.20019
-0.22199142
-0.22065436
-0.22525934
-0.20623815
-0.2056981
-0.17770924
-0.18235141
-0.12060991
-0.06565327
-0.07731469
-0.063606874
-0.070540416
-0.05896852
-0.054409777
-0.038581032
-0.028951656
-0.01899804
-0.014999013
-0.010467435
-0.0089893115
-0.006879839
-0.0061628517
-0.0048957171
-0.0043434866
-0.0034527883
-0.002941647
-0.0022844452
-0.0018662911
-0.0014114425
-0.0011358651
-0.0008688904
-0.00071132863
-0.00056963624
-0.00050021114
-0.00044706338
-0.00044105956
-0.00044708171
-0.00047993622
-0.00051497796
-0.00055709997
-0.00058638744
-0.0006004082
-0.00058113773
-0.00052849606
-0.00044400976
-0.00032702654
-0.0001797548
-1.991004e-06
0.00020749576
0.00043374814
0.00068037473
0.00093467973
0.0011917812
0.0014342012
0.001660667
0.0018504912
0.0020181396
0.0021488535
0.0022547099
0.0023113826
0.0023397419
0.0023028998
0.0022289321
0.0020549574
0.0018415404
0.0014872282
0.0011055151
0.00051227219
-7.0872481e-05
-0.00098150449
-0.0015190726
-0.001985022
-0.0022567594
-0.0024738023
-0.0025291028
-0.0025164969
-0.0023792821
-0.0021767704
-0.0018739098
-0.0015093089
-0.0010622707
-0.00055788207
1.6050223e-05
0.00064302188
0.0013299831
0.0020657717
0.0028490638
0.0036736884
0.0045461252
0.0054591715
0.0064127883
0.007402568
0.0084278509
0.0094852337
0.010573682
0.011690497
0.012834208
0.014002464
0.015192556
0.016413001
0.017662335
0.018929313
0.020216136
0.021521784
0.022838074
0.024165784
0.025511234
0.026870078
0.028241155
0.029623274
0.031016589
0.032419993
0.033831861
0.03524604
0.036664152
0.038092259
0.039527439
0.040969363
0.042416674
0.043869085
0.04532557
0.046785697
0.04824862
0.049713948
0.051180915
0.052649189
0.054118085
0.055587387
0.057056455
0.058524859
0.059991886
0.061457102
0.062919957
0.064380031
0.065836806
0.067289943
0.06873907
0.070183828
0.07162385
0.073058729
0.074488145
0.075911709
0.077329218
0.078740228
0.080144551
0.081541716
0.082931754
0.084314294
0.085689371
0.087056556
0.088415818
0.089766673
0.091108828
0.092441604
0.093764563
0.095077187
0.096379223
0.097670356
0.098950307
0.10021896
0.10147637
0.10272254
0.10395728
0.10518054
0.10639229
0.10759265
0.10878151
0.10995891
0.1111246
0.11227795
0.11341793
0.11454407
0.11565655
0.11675622
0.11784329
0.11891806
0.11997944
0.12102758
0.12206178
0.12308313
0.1240915
0.12508815
0.12607243
0.1270451
0.12800509
0.12895356
0.12988936
0.13081404
0.1317255
0.13262566
0.13351153
0.1343861
0.13524533
0.13609356
0.1369254
0.13774712
0.13855159
0.13934795
0.14012701
0.14090098
0.14165694
0.14241062
0.14314469
0.14387981
0.14459322
0.14531241
0.14600803
0.14671609
0.14739879
0.14810254
0.14877899
0.14948752
0.15016623
0.15088989
0.15157488
0.15231268
0.15302298
0.1537984
0.15455844
0.15537414
0.15618163
0.15703704
0.15789206
0.15879019
0.1596928
0.16063059
0.16156819
0.16252474
0.16346547
0.16440076
0.16529663
0.16615513
0.16695068
0.1676772
0.16831167
0.16882998
0.16920471
0.16941139
0.16942478
0.1692254
0.16880698
0.16815694
0.16730101
0.16625298
0.1650064
0.16354836
0.16189387
0.1599531
0.15768892
0.15519811
0.15235653
0.14913124
0.14537175
0.14102924
0.13584085
0.12961921
0.12180431
0.11267745
0.1013935
0.088532247
0.072558522
0.054792216
0.032547212
0.0083849725
-0.021871904
-0.053464094
-0.093628551
-0.13206642
-0.17567738
-0.20023282
-0.22198762
-0.22063823
-0.22523754
-0.20622353
-0.20568896
-0.17770412
-0.18235328
-0.12061451
-0.065656667
-0.077317018
-0.063605044
-0.070533905
-0.058971483
-0.054414344
-0.038604983
-0.028974562
-0.019023852
-0.01501724
-0.010484598
-0.0089992713
-0.0068891917
-0.0061685947
-0.0049018536
-0.0043477618
-0.0034575869
-0.0029453938
-0.0022882188
-0.001869198
-0.0014140328
-0.0011376307
-0.00087029218
-0.00071219094
-0.00057020386
-0.00050038757
-0.00044701857
-0.00044074288
-0.00044661291
-0.00047930875
-0.00051429233
-0.00055638789
-0.0005857477
-0.00059991237
-0.00058089713
-0.00052851055
-0.00044428169
-0.00032756925
-0.00018050017
-3.0172116e-06
0.00020617194
0.00043234235
0.00067881332
0.00093305793
0.0011901486
0.0014326763
0.0016592985
0.0018493812
0.0020172594
0.0021481732
0.0022542644
0.0023111057
0.0023396831
0.0023029711
0.0022292008
0.0020552765
0.0018419925
0.0014876134
0.0011059566
0.00051256169
-7.0478745e-05
-0.00098071129
-0.0015180332
-0.0019841625
-0.0022558987
-0.002473002
-0.0025282905
-0.0025157001
-0.0023784751
-0.0021759749
-0.0018731038
-0.0015085054
-0.0010614578
-0.00055706865
1.6871512e-05
0.0006438461
0.0013308148
0.0020666238
0.0028499107
0.0036745129
0.0045469459
0.0054599886
0.0064135963
0.0074033691
0.0084286389
0.0094860124
0.010574445
0.011691245
0.012834936
0.014003168
0.01519321
0.016413652
0.017663007
0.018929971
0.020216781
0.021522444
0.022838697
0.024166352
0.025511776
0.026870599
0.028241654
0.029623757
0.03101706
0.032420446
0.033832274
0.035246409
0.036664496
0.038092576
0.039527729
0.040969629
0.042416915
0.043869303
0.045325764
0.046785868
0.048248768
0.049714073
0.051181019
0.052649269
0.054118144
0.055587426
0.057056474
0.058524857
0.059991864
0.061457061
0.062919897
0.064379952
0.06583671
0.067289828
0.068738939
0.070183679
0.071623687
0.073058549
0.07448795
0.075911498
0.077328994
0.07873999
0.080144299
0.081541451
0.082931475
0.084314002
0.085689068
0.087056239
0.08841549
0.089766333
0.091108475
0.092441239
0.093764188
0.095076801
0.096378827
0.097669948
0.098949891
0.10021854
0.10147593
0.1027221
0.10395683
0.10518007
0.10639182
0.10759217
0.10878103
0.10995841
0.11112409
0.11227743
0.11341741
0.11454354
0.11565602
0.11675568
0.11784275
0.11891751
0.11997888
0.12102701
0.12206121
0.12308255
0.12409092
0.12508756
0.12607184
0.1270445
0.12800448
0.12895295
0.12988874
0.13081342
0.13172486
0.13262503
0.13351089
0.13438546
0.13524468
0.13609292
0.13692475
0.13774647
0.13855094
0.13934731
0.14012637
0.14090034
0.1416563
0.14240998
0.14314406
0.14387918
0.1445926
0.1453118
0.14600743
0.1467155
0.14739821
0.14810197
0.14877843
0.14948698
0.1501657
0.15088938
0.1515745
0.15231267
0.15302338
0.1537992
0.15455964
0.15537576
0.15618367
0.15703953
0.15789499
0.1587936
0.15969665
0.16063489
0.16157286
0.16252972
0.16347065
0.16440605
0.16530185
0.16616021
0.16695542
0.16768151
0.16831526
0.16883273
0.1692063
0.16941166
0.16942356
0.16922258
0.1688025
0.16815088
0.16729359
0.16624419
0.16499618
0.16353671
0.16188076
0.15993745
0.1576708
0.15517745
0.15233309
0.14910421
0.14534056
0.14099256
0.1357971
0.12956517
0.12174039
0.11260098
0.10130547
0.088428228
0.072441041
0.054655356
0.032395727
0.0082115747
-0.022052653
-0.053658374
-0.093808551
-0.13222752
-0.17576942
-0.20027119
-0.22198037
-0.22061969
-0.22521496
-0.20620878
-0.20567989
-0.17769901
-0.18235548
-0.12061906
-0.065659923
-0.077319063
-0.063602767
-0.070526938
-0.05897468
-0.054419215
-0.038629556
-0.028997727
-0.01905005
-0.015035817
-0.010502167
-0.0090095385
-0.0068988249
-0.0061745068
-0.0049081501
-0.0043521582
-0.0034625253
-0.0029492586
-0.002292106
-0.0018721931
-0.0014166973
-0.0011394482
-0.00087173231
-0.00071307563
-0.00057078462
-0.00050056298
-0.00044696806
-0.00044041115
-0.00044612679
-0.0004786582
-0.00051358391
-0.00055565271
-0.00058508794
-0.00059940198
-0.00058065003
-0.0005285267
-0.000444565
-0.00032813639
-0.0001812685
-4.0834206e-06
0.0002047779
0.00043088057
0.00067718397
0.00093136697
0.0011884375
0.0014310816
0.0016578551
0.0018482127
0.002016332
0.0021474578
0.0022537967
0.0023108159
0.0023396201
0.0023030464
0.0022294808
0.0020556123
0.0018424653
0.0014880226
0.0011064226
0.000512877
-7.0065387e-05
-0.00097994492
-0.0015170129
-0.0019833076
-0.0022550435
-0.0024722073
-0.002527482
-0.0025149036
-0.0023776666
-0.0021751763
-0.0018722931
-0.0015076954
-0.0010606369
-0.00055624577
1.7703699e-05
0.00064468288
0.001331661
0.0020674941
0.0028507754
0.0036753538
0.0045477835
0.0054608237
0.006414422
0.0074041885
0.0084294445
0.0094868094
0.010575225
0.01169201
0.01283568
0.014003887
0.015193876
0.016414318
0.017663697
0.018930648
0.020217446
0.021523129
0.022839341
0.024166936
0.025512331
0.026871134
0.028242166
0.029624252
0.031017541
0.032420909
0.033832698
0.035246787
0.03666485
0.038092902
0.039528028
0.040969902
0.042417164
0.043869528
0.045325964
0.046786044
0.04824892
0.049714202
0.051181125
0.052649351
0.054118206
0.055587465
0.057056493
0.058524855
0.059991842
0.061457019
0.062919836
0.064379871
0.065836611
0.06728971
0.068738805
0.070183527
0.071623519
0.073058364
0.074487751
0.075911282
0.077328764
0.078739745
0.080144042
0.081541178
0.082931191
0.084313704
0.085688757
0.087055916
0.088415153
0.089765984
0.091108114
0.092440865
0.093763802
0.095076404
0.096378421
0.09766953
0.098949466
0.1002181
0.10147549
0.10272164
0.10395637
0.1051796
0.10639134
0.10759168
0.10878053
0.1099579
0.11112357
0.11227691
0.11341688
0.114543
0.11565548
0.11675512
0.11784219
0.11891694
0.11997831
0.12102643
0.12206063
0.12308196
0.12409032
0.12508696
0.12607123
0.12704388
0.12800386
0.12895232
0.1298881
0.13081278
0.13172421
0.13262438
0.13351023
0.1343848
0.13524401
0.13609225
0.13692408
0.13774581
0.13855028
0.13934665
0.14012571
0.14089968
0.14165564
0.14240933
0.14314341
0.14387854
0.14459196
0.14531117
0.14600681
0.14671489
0.1473976
0.14810138
0.14877785
0.14948642
0.15016515
0.15088885
0.1515741
0.15231265
0.15302378
0.15380001
0.15456087
0.15537742
0.15618576
0.15704209
0.15789801
0.15879713
0.15970064
0.16063935
0.1615777
0.16253489
0.16347603
0.16441153
0.16530725
0.16616547
0.16696033
0.167686
0.168319
0.16883561
0.16920796
0.16941195
0.16942231
0.16921966
0.16879787
0.16814462
0.16728594
0.16623512
0.16498563
0.16352467
0.16186722
0.15992129
0.15765207
0.15515609
0.15230887
0.14907628
0.14530835
0.14095468
0.13575196
0.12950945
0.12167456
0.11252223
0.10121487
0.088321177
0.072320149
0.054514565
0.032239922
0.0080335543
-0.022237693
-0.053856293
-0.093990196
-0.13238795
-0.1758574
-0.20030453
-0.22196794
-0.22059742
-0.22519015
-0.20619322
-0.20567029
-0.1776939
-0.18235768
-0.12062349
-0.065663011
-0.077320794
-0.063600041
-0.070519399
-0.058977899
-0.054424288
-0.038654771
-0.02902118
-0.019076668
-0.015054774
-0.010520173
-0.0090201264
-0.0069087561
-0.006180605
-0.0049146286
-0.0043566911
-0.0034676166
-0.0029532524
-0.0022961186
-0.0018752865
-0.0014194453
-0.001141325
-0.00087321679
-0.0007139875
-0.00057138189
-0.00050073912
-0.00044691331
-0.00044006515
-0.00044562301
-0.00047798395
-0.00051285134
-0.00055489305
-0.00058440674
-0.00059887595
-0.00058039611
-0.00052854528
-0.00044486106
-0.00032873032
-0.00018206566
-5.1918512e-06
0.00020331281
0.00042935512
0.00067548151
0.00092960093
0.0011866431
0.0014294106
0.0016563326
0.0018469792
0.00201535
0.0021466986
0.0022532973
0.0023105026
0.0023395427
0.0023031156
0.0022297631
0.0020559573
0.0018429522
0.0014884502
0.0011069087
0.00051321413
-6.9636503e-05
-0.00097920688
-0.0015160096
-0.0019824556
-0.002254192
-0.0024714152
-0.0025266744
-0.0025141053
-0.0023768546
-0.0021743726
-0.0018714757
-0.0015068769
-0.001059806
-0.00055541146
1.8548613e-05
0.00064553388
0.0013325229
0.0020683811
0.0028516567
0.0036762122
0.004548639
0.0054616779
0.0064152666
0.0074050272
0.008430269
0.0094876257
0.010576024
0.011692795
0.012836443
0.014004624
0.015194558
0.016415002
0.017664406
0.018931345
0.020218129
0.021523832
0.022840001
0.024167535
0.025512901
0.026871683
0.028242691
0.029624759
0.031018034
0.032421384
0.033833135
0.035247178
0.036665212
0.038093236
0.039528334
0.040970184
0.042417419
0.043869759
0.045326169
0.046786226
0.048249077
0.049714335
0.051181235
0.052649436
0.05411827
0.055587506
0.057056514
0.058524853
0.05999182
0.061456975
0.062919773
0.064379787
0.065836509
0.06728959
0.068738667
0.07018337
0.071623347
0.073058175
0.074487547
0.07591106
0.077328528
0.078739494
0.080143777
0.081540899
0.082930898
0.084313398
0.085688439
0.087055584
0.088414808
0.089765626
0.091107742
0.092440481
0.093763407
0.095075996
0.096378004
0.097669099
0.098949029
0.10021765
0.10147504
0.10272117
0.10395589
0.10517912
0.10639085
0.10759117
0.10878002
0.10995738
0.11112304
0.11227636
0.11341633
0.11454245
0.11565492
0.11675456
0.11784162
0.11891636
0.11997772
0.12102584
0.12206003
0.12308136
0.12408971
0.12508634
0.1260706
0.12704325
0.12800321
0.12895168
0.12988745
0.13081213
0.13172354
0.13262371
0.13350954
0.13438412
0.13524332
0.13609157
0.13692339
0.13774512
0.13854959
0.13934597
0.14012504
0.14089901
0.14165496
0.14240866
0.14314274
0.14387788
0.14459131
0.14531053
0.14600617
0.14671426
0.14739697
0.14810077
0.14877725
0.14948585
0.15016459
0.1508883
0.15157368
0.15231263
0.15302419
0.15380084
0.15456213
0.15537913
0.15618791
0.15704472
0.15790111
0.15880076
0.15970477
0.16064398
0.16158272
0.16254026
0.16348161
0.16441722
0.16531286
0.16617092
0.16696543
0.16769067
0.16832289
0.16883862
0.1692097
0.16941226
0.16942101
0.16921665
0.16879308
0.16813814
0.16727802
0.16622574
0.16497473
0.1635122
0.16185322
0.15990456
0.15763269
0.15513395
0.1522838
0.14904737
0.14527502
0.14091551
0.13570527
0.12945188
0.12160655
0.112441
0.10112142
0.088210812
0.072195535
0.054369627
0.032079668
0.0078508545
-0.022426858
-0.054057455
-0.094172476
-0.13254601
-0.17593886
-0.20033032
-0.22194829
-0.22057003
-0.22516207
-0.20617629
-0.20565986
-0.17768862
-0.18235973
-0.12062777
-0.065665876
-0.077322163
-0.063596866
-0.07051117
-0.058980925
-0.054429458
-0.038680604
-0.029044895
-0.019103666
-0.015074079
-0.010538597
-0.0090310166
-0.0069189738
-0.0061868885
-0.0049212921
-0.0043613621
-0.00347286
-0.0029573746
-0.0023002566
-0.0018784797
-0.0014222783
-0.0011432625
-0.00087474689
-0.00071492806
-0.00057199693
-0.00050091791
-0.00044685519
-0.00043970599
-0.00044510222
-0.0004772869
-0.00051209521
-0.00055410955
-0.00058370467
-0.00059833483
-0.00058013607
-0.00052856728
-0.00044517087
-0.00032935198
-0.0001828954
-6.3421437e-06
0.00020177831
0.00042776175
0.00067370393
0.00092775678
0.0011847638
0.0014276594
0.0016547283
0.0018456755
0.0020143066
0.0021458871
0.0022527554
0.0023101556
0.0023394401
0.0023031678
0.0022300372
0.0020563022
0.0018434448
0.0014888892
0.0011074083
0.00051356733
-6.9199514e-05
-0.00097850541
-0.0015150287
-0.0019816106
-0.002253348
-0.0024706275
-0.0025258697
-0.0025133075
-0.0023760415
-0.0021735658
-0.0018706534
-0.0015060516
-0.0010589669
-0.00055456738
1.9404585e-05
0.00064639739
0.0013333983
0.0020692799
0.0028525501
0.0036770862
0.0045495107
0.0054625492
0.0064161282
0.0074058836
0.0084311107
0.0094884597
0.01057684
0.011693596
0.012837222
0.014005378
0.015195262
0.016415708
0.017665134
0.01893206
0.020218831
0.021524547
0.02284067
0.024168149
0.025513484
0.026872245
0.028243228
0.029625279
0.03101854
0.032421871
0.03383359
0.035247585
0.036665584
0.038093579
0.039528649
0.040970473
0.042417681
0.043869998
0.045326381
0.046786413
0.048249239
0.049714471
0.051181348
0.052649523
0.054118336
0.055587548
0.057056536
0.058524852
0.059991798
0.061456931
0.062919709
0.064379702
0.065836405
0.067289466
0.068738526
0.070183209
0.07162317
0.073057981
0.074487337
0.075910832
0.077328285
0.078739236
0.080143506
0.081540612
0.082930598
0.084313084
0.085688112
0.087055243
0.088414454
0.089765258
0.09110736
0.092440086
0.093763
0.095075577
0.096377575
0.097668657
0.09894858
0.10021719
0.10147457
0.10272069
0.10395541
0.10517862
0.10639035
0.10759065
0.10877949
0.10995684
0.11112249
0.11227581
0.11341576
0.11454188
0.11565435
0.11675397
0.11784103
0.11891575
0.11997712
0.12102523
0.12205942
0.12308073
0.12408909
0.12508571
0.12606995
0.1270426
0.12800255
0.12895102
0.12988677
0.13081145
0.13172284
0.13262302
0.13350884
0.13438342
0.13524261
0.13609086
0.13692268
0.13774442
0.13854889
0.13934527
0.14012434
0.14089831
0.14165427
0.14240797
0.14314205
0.1438772
0.14459063
0.14530986
0.14600551
0.14671361
0.14739633
0.14810014
0.14877662
0.14948525
0.150164
0.15088773
0.15157324
0.15231259
0.1530246
0.15380168
0.15456341
0.15538088
0.15619011
0.15704742
0.15790432
0.15880452
0.15970904
0.16064876
0.16158792
0.16254582
0.16348739
0.1644231
0.16531865
0.16617656
0.1669707
0.16769551
0.16832693
0.16884175
0.16921151
0.16941259
0.16941968
0.16921353
0.16878814
0.16813145
0.16726985
0.16621605
0.16496346
0.16349932
0.16183874
0.15988724
0.15761265
0.15511106
0.15225788
0.14901746
0.14524055
0.140875
0.135657
0.12939241
0.12153638
0.11235721
0.10102515
0.088097137
0.07206731
0.054220671
0.031915245
0.0076639615
-0.022619438
-0.054260712
-0.094353966
-0.13269943
-0.17601092
-0.20034567
-0.22191917
-0.22053601
-0.22512969
-0.20615744
-0.2056483
-0.17768306
-0.18236148
-0.12063181
-0.065668492
-0.077323106
-0.063593232
-0.070502104
-0.058983525
-0.054434604
-0.03870705
-0.029068878
-0.019131025
-0.015093709
-0.010557429
-0.0090421968
-0.0069294737
-0.006193359
-0.0049281461
-0.0043661758
-0.0034782579
-0.0029616278
-0.0023045229
-0.0018817757
-0.0014251992
-0.0011452634
-0.00087632487
-0.00071589894
-0.00057263116
-0.0005011009
-0.00044679434
-0.00043933441
-0.00044456459
-0.00047656735
-0.0005113155
-0.00055330231
-0.00058298182
-0.00059777888
-0.00057987044
-0.00052859375
-0.0004454957
-0.00033000288
-0.00018376194
-7.5350143e-06
0.00020017417
0.00042609461
0.00067184683
0.00092582915
0.0011827948
0.0014258212
0.001653037
0.0018442933
0.0020131926
0.0021450128
0.0022521589
0.0023097627
0.0023393002
0.0023031906
0.0022302916
0.002056637
0.0018439335
0.0014893313
0.0011079137
0.00051392949
-6.876373e-05
-0.00097785002
-0.0015140766
-0.0019807778
-0.0022525161
-0.0024698464
-0.0025250699
-0.0025125129
-0.0023752297
-0.0021727579
-0.0018698284
-0.0015052214
-0.0010581213
-0.00055371498
2.0270168e-05
0.00064727193
0.0013342856
0.0020701853
0.0028534507
0.0036779741
0.0045503972
0.0054634363
0.0064170058
0.0074067562
0.0084319687
0.0094893105
0.010577672
0.011694414
0.012838018
0.01400615
0.015195993
0.016416442
0.01766588
0.018932793
0.020219549
0.021525266
0.022841343
0.024168776
0.02551408
0.026872821
0.028243778
0.029625811
0.031019057
0.03242237
0.033834066
0.035248011
0.036665965
0.038093931
0.039528973
0.040970769
0.042417951
0.043870243
0.045326599
0.046786605
0.048249406
0.049714612
0.051181465
0.052649613
0.054118404
0.055587592
0.057056558
0.058524851
0.059991775
0.061456886
0.062919643
0.064379614
0.065836298
0.067289339
0.068738381
0.070183045
0.071622988
0.073057781
0.074487122
0.075910598
0.077328037
0.078738971
0.080143227
0.081540317
0.08293029
0.084312762
0.085687776
0.087054893
0.08841409
0.08976488
0.091106968
0.09243968
0.093762582
0.095075146
0.096377135
0.097668202
0.098948119
0.10021671
0.10147409
0.10272019
0.10395491
0.1051781
0.10638983
0.10759012
0.10877895
0.10995628
0.11112193
0.11227523
0.11341518
0.11454129
0.11565376
0.11675338
0.11784043
0.11891514
0.1199765
0.1210246
0.12205879
0.12308009
0.12408844
0.12508506
0.12606929
0.12704194
0.12800187
0.12895034
0.12988607
0.13081075
0.13172213
0.13262231
0.13350811
0.1343827
0.13524187
0.13609014
0.13692195
0.13774369
0.13854816
0.13934456
0.14012362
0.14089759
0.14165355
0.14240725
0.14314134
0.1438765
0.14458994
0.14530918
0.14600483
0.14671294
0.14739566
0.14809949
0.14877598
0.14948463
0.1501634
0.15088713
0.15157277
0.15231254
0.15302501
0.15380254
0.15456473
0.15538267
0.15619238
0.15705021
0.15790762
0.15880839
0.15971345
0.1606537
0.16159329
0.16255157
0.16349335
0.16442918
0.16532464
0.16618238
0.16697615
0.16770051
0.1683311
0.16884498
0.16921338
0.16941293
0.1694183
0.1692103
0.16878303
0.16812454
0.16726141
0.16620604
0.16495182
0.16348601
0.16182376
0.15986932
0.15759193
0.15508738
0.15223107
0.14898654
0.14520489
0.14083312
0.13560709
0.12933099
0.12146395
0.11227084
0.10092594
0.087980159
0.07193548
0.054067727
0.031746877
0.0074732918
-0.022814802
-0.05446514
-0.094533051
-0.13284603
-0.17607062
-0.20034762
-0.22187813
-0.22049367
-0.22509177
-0.20613599
-0.20563524
-0.17767705
-0.18236274
-0.12063554
-0.065670821
-0.077323547
-0.063589096
-0.070492023
-0.05898543
-0.054439573
-0.038734098
-0.029093161
-0.019158728
-0.015113644
-0.01057666
-0.0090536573
-0.0069402529
-0.0062000193
-0.0049351983
-0.004371137
-0.0034838145
-0.0029660149
-0.0023089215
-0.0018851783
-0.001428212
-0.0011473306
-0.00087795321
-0.00071690201
-0.00057328603
-0.0005012894
-0.00044673124
-0.00043895088
-0.00044401005
-0.00047582533
-0.00051051191
-0.00055247106
-0.00058223801
-0.0005972081
-0.00057959967
-0.00052862573
-0.0004458371
-0.00033068467
-0.00018466976
-8.7724814e-06
0.0001984987
0.00042434704
0.00066990431
0.00092381056
0.0011807297
0.0014238868
0.0016512509
0.0018428226
0.0020119968
0.0021440633
0.002251494
0.0023093105
0.0023391094
0.0023031703
0.0022305132
0.0020569497
0.001844407
0.0014897665
0.0011084148
0.00051429144
-6.8340547e-05
-0.00097725122
-0.0015131604
-0.0019799629
-0.0022517015
-0.0024690739
-0.0025242774
-0.0025117244
-0.0023744219
-0.0021719512
-0.0018690026
-0.0015043878
-0.0010572707
-0.00055285563
2.1144049e-05
0.00064815624
0.0013351832
0.0020710921
0.0028543538
0.0036788748
0.0045512975
0.0054643382
0.0064178984
0.0074076443
0.0084328422
0.009490177
0.010578521
0.011695248
0.01283883
0.01400694
0.015196757
0.016417208
0.017666645
0.018933543
0.020220283
0.021525983
0.022842011
0.024169416
0.02551469
0.02687341
0.02824434
0.029626355
0.031019586
0.032422881
0.033834566
0.03524846
0.036666355
0.038094292
0.039529304
0.040971074
0.042418228
0.043870494
0.045326822
0.046786803
0.048249577
0.049714757
0.051181584
0.052649706
0.054118474
0.055587637
0.057056581
0.058524849
0.059991752
0.06145684
0.062919576
0.064379524
0.065836188
0.067289208
0.068738231
0.070182875
0.071622801
0.073057576
0.0744869
0.075910357
0.07732778
0.078738699
0.08014294
0.081540014
0.082929973
0.08431243
0.085687431
0.087054532
0.088413715
0.089764491
0.091106564
0.092439262
0.093762151
0.095074701
0.09637668
0.097667733
0.098947643
0.10021623
0.1014736
0.10271968
0.10395439
0.10517758
0.1063893
0.10758957
0.10877839
0.10995571
0.11112135
0.11227464
0.11341457
0.11454068
0.11565315
0.11675276
0.11783981
0.1189145
0.11997586
0.12102395
0.12205814
0.12307944
0.12408778
0.12508439
0.12606861
0.12704125
0.12800117
0.12894964
0.12988536
0.13081004
0.13172139
0.13262158
0.13350737
0.13438195
0.13524112
0.13608939
0.13692119
0.13774294
0.13854741
0.13934381
0.14012288
0.14089686
0.14165281
0.14240652
0.14314061
0.14387578
0.14458922
0.14530848
0.14600413
0.14671225
0.14739498
0.14809882
0.14877532
0.149484
0.15016277
0.15088652
0.15157228
0.15231248
0.15302542
0.15380341
0.15456607
0.15538451
0.15619471
0.15705307
0.15791102
0.15881238
0.15971799
0.1606588
0.16159883
0.1625575
0.16349952
0.16443546
0.16533083
0.1661884
0.16698179
0.16770567
0.16833541
0.16884832
0.16921531
0.16941328
0.16941687
0.16920697
0.16877776
0.16811741
0.16725269
0.1661957
0.16493979
0.16347224
0.16180823
0.15985076
0.1575705
0.15506288
0.15220333
0.14895455