0.00102579 	7.68235e-07 	-3.71625e-09 	0 	3.25019e-09 	0 	8.87519e-07
0.0032282 	1.63413e-06 	-7.90492e-09 	0 	6.91354e-09 	0 	1.88786e-06
0.00581417 	3.13387e-06 	-2.37813e-08 	0 	2.91009e-08 	0 	3.58034e-06
0.00874241 	5.31324e-06 	-6.26959e-08 	0 	9.03139e-08 	0 	5.96808e-06
0.0119765 	7.94571e-06 	-1.25808e-07 	0 	2.06317e-07 	0 	8.78342e-06
0.0154877 	1.06622e-05 	-2.11558e-07 	0 	3.95987e-07 	0 	1.16016e-05
0.0192552 	1.32662e-05 	-3.14838e-07 	0 	6.68818e-07 	0 	1.42336e-05
0.0232652 	1.55706e-05 	-4.28789e-07 	0 	1.03144e-06 	0 	1.65267e-05
0.0275097 	1.75502e-05 	-5.4971e-07 	0 	1.475e-06 	0 	1.84839e-05
0.0319852 	1.92455e-05 	-6.75699e-07 	0 	1.98484e-06 	0 	2.01672e-05
0.0366918 	2.06429e-05 	-8.07238e-07 	0 	2.55535e-06 	0 	2.15694e-05
0.0416323 	2.17838e-05 	-9.45325e-07 	0 	3.17395e-06 	0 	2.27314e-05
0.0468113 	2.27355e-05 	-1.09113e-06 	0 	3.82782e-06 	0 	2.37143e-05
0.0522354 	2.3534e-05 	-1.24583e-06 	0 	4.50848e-06 	0 	2.45482e-05
0.057912 	2.4201e-05 	-1.41053e-06 	0 	5.20769e-06 	0 	2.52487e-05
0.0638497 	2.47602e-05 	-1.58616e-06 	0 	5.91762e-06 	0 	2.58324e-05
0.0700579 	2.52317e-05 	-1.77344e-06 	0 	6.6326e-06 	0 	2.63131e-05
0.0765467 	2.56322e-05 	-1.97248e-06 	0 	7.34843e-06 	0 	2.6703e-05
0.0833266 	2.59769e-05 	-2.18313e-06 	0 	8.0627e-06 	0 	2.70127e-05
0.0904088 	2.62798e-05 	-2.40551e-06 	0 	8.7747e-06 	0 	2.72522e-05
0.0978048 	2.65533e-05 	-2.63999e-06 	0 	9.48414e-06 	0 	2.74308e-05
0.105526 	2.6808e-05 	-2.88706e-06 	0 	1.01896e-05 	0 	2.75533e-05
0.113586 	2.70535e-05 	-3.14732e-06 	0 	1.08891e-05 	0 	2.76227e-05
0.121997 	2.72997e-05 	-3.4217e-06 	0 	1.15832e-05 	0 	2.76461e-05
0.130771 	2.75553e-05 	-3.71202e-06 	0 	1.22718e-05 	0 	2.76319e-05
0.139923 	2.78258e-05 	-4.02046e-06 	0 	1.29538e-05 	0 	2.75861e-05
0.149465 	2.81146e-05 	-4.34771e-06 	0 	1.363e-05 	0 	2.75138e-05
0.159412 	2.84213e-05 	-4.69257e-06 	0 	1.43011e-05 	0 	2.74199e-05
0.169777 	2.87421e-05 	-5.05293e-06 	0 	1.49689e-05 	0 	2.73126e-05
0.180576 	2.90763e-05 	-5.42664e-06 	0 	1.5635e-05 	0 	2.72029e-05
0.191822 	2.9429e-05 	-5.81247e-06 	0 	1.63007e-05 	0 	2.70981e-05
0.20353 	2.98044e-05 	-6.21022e-06 	0 	1.6966e-05 	0 	2.70023e-05
0.215716 	3.02051e-05 	-6.62095e-06 	0 	1.763e-05 	0 	2.69253e-05
0.228393 	3.06334e-05 	-7.04596e-06 	0 	1.82927e-05 	0 	2.68798e-05
0.241577 	3.10923e-05 	-7.48439e-06 	0 	1.89549e-05 	0 	2.68715e-05
0.255283 	3.15851e-05 	-7.93535e-06 	0 	1.96155e-05 	0 	2.68987e-05
0.269526 	3.21134e-05 	-8.4015e-06 	0 	2.02704e-05 	0 	2.69597e-05
0.28432 	3.26749e-05 	-8.88626e-06 	0 	2.09135e-05 	0 	2.70583e-05
0.29968 	3.32735e-05 	-9.39045e-06 	0 	2.15396e-05 	0 	2.72008e-05
0.315621 	3.39265e-05 	-9.91141e-06 	0 	2.21457e-05 	0 	2.73877e-05
0.332156 	3.46495e-05 	-1.04442e-05 	0 	2.27287e-05 	0 	2.76143e-05
0.3493 	3.5441e-05 	-1.09849e-05 	0 	2.32882e-05 	0 	2.78746e-05
0.367066 	3.62909e-05 	-1.15326e-05 	0 	2.38282e-05 	0 	2.81638e-05
0.385466 	3.71893e-05 	-1.20855e-05 	0 	2.43537e-05 	0 	2.84828e-05
0.404513 	3.8132e-05 	-1.26387e-05 	0 	2.48632e-05 	0 	2.88212e-05
0.424218 	3.91087e-05 	-1.31906e-05 	0 	2.53473e-05 	0 	2.91529e-05
0.444592 	4.01064e-05 	-1.37405e-05 	0 	2.57912e-05 	0 	2.94705e-05
0.465645 	4.11336e-05 	-1.42836e-05 	0 	2.61839e-05 	0 	2.97951e-05
0.487386 	4.21788e-05 	-1.48124e-05 	0 	2.65274e-05 	0 	3.01359e-05
0.509822 	4.32212e-05 	-1.53237e-05 	0 	2.68322e-05 	0 	3.04671e-05
0.532961 	4.42748e-05 	-1.58173e-05 	0 	2.71022e-05 	0 	3.07642e-05
0.556808 	4.53425e-05 	-1.62923e-05 	0 	2.73355e-05 	0 	3.10041e-05
0.581366 	4.63848e-05 	-1.67419e-05 	0 	2.7537e-05 	0 	3.11763e-05
0.606639 	4.73667e-05 	-1.71574e-05 	0 	2.77103e-05 	0 	3.13226e-05
0.632627 	4.82558e-05 	-1.75306e-05 	0 	2.78447e-05 	0 	3.14905e-05
0.65933 	4.90663e-05 	-1.78575e-05 	0 	2.79212e-05 	0 	3.16686e-05
0.686745 	4.98873e-05 	-1.81358e-05 	0 	2.7931e-05 	0 	3.18508e-05
0.714868 	5.0764e-05 	-1.83608e-05 	0 	2.78857e-05 	0 	3.20433e-05
0.743693 	5.1634e-05 	-1.85326e-05 	0 	2.78113e-05 	0 	3.21994e-05
0.773211 	5.23901e-05 	-1.8659e-05 	0 	2.77176e-05 	0 	3.22369e-05
0.803413 	5.29717e-05 	-1.8742e-05 	0 	2.75818e-05 	0 	3.21185e-05
0.834286 	5.34041e-05 	-1.87651e-05 	0 	2.73849e-05 	0 	3.18624e-05
0.865815 	5.37172e-05 	-1.87238e-05 	0 	2.71289e-05 	0 	3.1507e-05
0.897985 	5.38934e-05 	-1.86344e-05 	0 	2.68199e-05 	0 	3.11013e-05
0.930775 	5.39374e-05 	-1.85013e-05 	0 	2.64531e-05 	0 	3.06624e-05
0.964166 	5.38152e-05 	-1.82965e-05 	0 	2.60299e-05 	0 	3.01668e-05
0.998133 	5.34886e-05 	-1.80004e-05 	0 	2.55674e-05 	0 	2.96302e-05
1.03265 	5.29688e-05 	-1.76153e-05 	0 	2.50629e-05 	0 	2.90701e-05
1.0677 	5.22415e-05 	-1.71563e-05 	0 	2.4499e-05 	0 	2.84237e-05
1.10323 	5.13037e-05 	-1.66456e-05 	0 	2.38793e-05 	0 	2.76596e-05
1.13924 	5.0174e-05 	-1.60962e-05 	0 	2.32315e-05 	0 	2.68073e-05
1.17567 	4.88432e-05 	-1.5509e-05 	0 	2.25619e-05 	0 	2.59025e-05
1.2125 	4.74019e-05 	-1.48907e-05 	0 	2.18593e-05 	0 	2.49585e-05
1.24968 	4.59376e-05 	-1.42497e-05 	0 	2.11353e-05 	0 	2.39844e-05
1.28719 	4.44169e-05 	-1.35824e-05 	0 	2.03931e-05 	0 	2.29896e-05
1.32498 	4.28083e-05 	-1.28862e-05 	0 	1.96398e-05 	0 	2.20142e-05
1.363 	4.11494e-05 	-1.21816e-05 	0 	1.8893e-05 	0 	2.10913e-05
1.40123 	3.94801e-05 	-1.14989e-05 	0 	1.81552e-05 	0 	2.02072e-05
1.43962 	3.78012e-05 	-1.08488e-05 	0 	1.74209e-05 	0 	1.93274e-05
1.47811 	3.6108e-05 	-1.023e-05 	0 	1.66811e-05 	0 	1.84358e-05
1.51668 	3.44252e-05 	-9.64284e-06 	0 	1.59485e-05 	0 	1.75573e-05
1.55528 	3.2793e-05 	-9.09485e-06 	0 	1.52409e-05 	0 	1.67393e-05
1.59385 	3.1199e-05 	-8.58168e-06 	0 	1.457e-05 	0 	1.59731e-05
1.63237 	2.96713e-05 	-8.08467e-06 	0 	1.39404e-05 	0 	1.52344e-05
1.67078 	2.82797e-05 	-7.59962e-06 	0 	1.3348e-05 	0 	1.45294e-05
1.70905 	2.70293e-05 	-7.15075e-06 	0 	1.27825e-05 	0 	1.38698e-05
1.74713 	2.58403e-05 	-6.75333e-06 	0 	1.22458e-05 	0 	1.32478e-05
1.78497 	2.46786e-05 	-6.39513e-06 	0 	1.17464e-05 	0 	1.26483e-05
1.82255 	2.35583e-05 	-6.05675e-06 	0 	1.12903e-05 	0 	1.2072e-05
1.85982 	2.25286e-05 	-5.73707e-06 	0 	1.08759e-05 	0 	1.15342e-05
1.89674 	2.16189e-05 	-5.44021e-06 	0 	1.04945e-05 	0 	1.10353e-05
1.93328 	2.08009e-05 	-5.16012e-06 	0 	1.01365e-05 	0 	1.05786e-05
1.96941 	2.00403e-05 	-4.89172e-06 	0 	9.79821e-06 	0 	1.01705e-05
2.00508 	1.93173e-05 	-4.63418e-06 	0 	9.4825e-06 	0 	9.80689e-06
2.04028 	1.86303e-05 	-4.3847e-06 	0 	9.18488e-06 	0 	9.48413e-06
2.07497 	1.79996e-05 	-4.14237e-06 	0 	8.89577e-06 	0 	9.18702e-06
2.10912 	1.74327e-05 	-3.90931e-06 	0 	8.61617e-06 	0 	8.9035e-06
2.14271 	1.69101e-05 	-3.68237e-06 	0 	8.35029e-06 	0 	8.64586e-06
2.17571 	1.64029e-05 	-3.45532e-06 	0 	8.09652e-06 	0 	8.41909e-06
2.20812 	1.5885e-05 	-3.22632e-06 	0 	7.85105e-06 	0 	8.2116e-06
2.23989 	1.53522e-05 	-2.99479e-06 	0 	7.60713e-06 	0 	8.02035e-06
2.27103 	1.48184e-05 	-2.76294e-06 	0 	7.36428e-06 	0 	7.8433e-06
2.30152 	1.43031e-05 	-2.53675e-06 	0 	7.12835e-06 	0 	7.67889e-06
2.33133 	1.38228e-05 	-2.31934e-06 	0 	6.90054e-06 	0 	7.53498e-06
2.36047 	1.3379e-05 	-2.1099e-06 	0 	6.68077e-06 	0 	7.41395e-06
2.38893 	1.29576e-05 	-1.9081e-06 	0 	6.47065e-06 	0 	7.31192e-06
2.41668 	1.25501e-05 	-1.71415e-06 	0 	6.26828e-06 	0 	7.23175e-06
2.44374 	1.21589e-05 	-1.52744e-06 	0 	6.06956e-06 	0 	7.17043e-06
2.4701 	1.17903e-05 	-1.34616e-06 	0 	5.87252e-06 	0 	7.12148e-06
2.49576 	1.14506e-05 	-1.16755e-06 	0 	5.67739e-06 	0 	7.08613e-06
2.52071 	1.11428e-05 	-9.90924e-07 	0 	5.48529e-06 	0 	7.06494e-06
2.54496 	1.08717e-05 	-8.17955e-07 	0 	5.29729e-06 	0 	7.05563e-06
2.56852 	1.0645e-05 	-6.49724e-07 	0 	5.11356e-06 	0 	7.06046e-06
2.59138 	1.04659e-05 	-4.86095e-07 	0 	4.93403e-06 	0 	7.08046e-06
2.61355 	1.03293e-05 	-3.25531e-07 	0 	4.76094e-06 	0 	7.11212e-06
2.63503 	1.02329e-05 	-1.65638e-07 	0 	4.59861e-06 	0 	7.15028e-06
2.65585 	1.01831e-05 	-5.44362e-09 	0 	4.44973e-06 	0 	7.19223e-06
2.676 	1.0186e-05 	1.558e-07 	0 	4.3137e-06 	0 	7.24167e-06
2.69549 	1.02448e-05 	3.19574e-07 	0 	4.18853e-06 	0 	7.30506e-06
2.71434 	1.03605e-05 	4.86129e-07 	0 	4.07278e-06 	0 	7.38607e-06
2.73255 	1.05346e-05 	6.54554e-07 	0 	3.96588e-06 	0 	7.48413e-06
2.75015 	1.07717e-05 	8.24447e-07 	0 	3.86806e-06 	0 	7.59541e-06
2.76713 	1.10773e-05 	9.96159e-07 	0 	3.78032e-06 	0 	7.71579e-06
2.78351 	1.14568e-05 	1.1694e-06 	0 	3.70363e-06 	0 	7.84238e-06
2.79932 	1.19139e-05 	1.34334e-06 	0 	3.63759e-06 	0 	7.97118e-06
2.81455 	1.24495e-05 	1.51695e-06 	0 	3.5801e-06 	0 	8.09705e-06
2.82922 	1.30653e-05 	1.68854e-06 	0 	3.52886e-06 	0 	8.2165e-06
2.84336 	1.37603e-05 	1.85566e-06 	0 	3.48171e-06 	0 	8.32852e-06
2.85696 	1.45294e-05 	2.01554e-06 	0 	3.43566e-06 	0 	8.43344e-06
2.87006 	1.53672e-05 	2.16539e-06 	0 	3.38622e-06 	0 	8.52943e-06
2.88265 	1.6268e-05 	2.30198e-06 	0 	3.32815e-06 	0 	8.60998e-06
2.89475 	1.72257e-05 	2.42213e-06 	0 	3.25666e-06 	0 	8.66714e-06
2.90639 	1.82311e-05 	2.52338e-06 	0 	3.16776e-06 	0 	8.69446e-06
2.91756 	1.92686e-05 	2.6029e-06 	0 	3.05733e-06 	0 	8.68469e-06
2.92829 	2.03143e-05 	2.6572e-06 	0 	2.92133e-06 	0 	8.63094e-06
2.93858 	2.13333e-05 	2.68357e-06 	0 	2.75758e-06 	0 	8.53057e-06
2.94846 	2.22818e-05 	2.67765e-06 	0 	2.5635e-06 	0 	8.38189e-06
2.95792 	2.31141e-05 	2.63403e-06 	0 	2.33703e-06 	0 	8.18461e-06
2.96697 	2.37756e-05 	2.54773e-06 	0 	2.07914e-06 	0 	7.93769e-06
2.97563 	2.41841e-05 	2.41182e-06 	0 	1.79285e-06 	0 	7.63078e-06
2.98389 	2.42273e-05 	2.22054e-06 	0 	1.48639e-06 	0 	7.24761e-06
2.99176 	2.37215e-05 	1.96813e-06 	0 	1.17262e-06 	0 	6.76407e-06
2.99923 	2.23786e-05 	1.64984e-06 	0 	8.67054e-07 	0 	6.14622e-06
3.00628 	1.99056e-05 	1.27537e-06 	0 	5.88234e-07 	0 	5.36799e-06
3.01289 	1.61878e-05 	8.77296e-07 	0 	3.54448e-07 	0 	4.42301e-06
3.01902 	1.15093e-05 	5.08353e-07 	0 	1.79894e-07 	0 	3.33054e-06
3.02463 	6.65669e-06 	2.25388e-07 	0 	6.96119e-08 	0 	2.15348e-06
