0.00102579 	9.34709e-07 	-1.81468e-09 	0 	4.55196e-09 	0 	1.12095e-06
0.00322814 	1.98835e-06 	-3.8602e-09 	0 	9.68312e-09 	0 	2.38453e-06
0.00581393 	3.74648e-06 	-1.4018e-08 	0 	3.99832e-08 	0 	4.48926e-06
0.00789695 	5.41591e-06 	-3.09974e-08 	0 	9.23234e-08 	0 	6.48355e-06
0.00944146 	6.81323e-06 	-4.91469e-08 	0 	1.4873e-07 	0 	8.15029e-06
0.0119756 	9.00588e-06 	-8.86917e-08 	0 	2.78381e-07 	0 	1.07542e-05
0.0154863 	1.1783e-05 	-1.61226e-07 	0 	5.277e-07 	0 	1.40324e-05
0.0192532 	1.43227e-05 	-2.58321e-07 	0 	8.81394e-07 	0 	1.70192e-05
0.0232626 	1.64761e-05 	-3.78146e-07 	0 	1.34479e-06 	0 	1.95584e-05
0.0275065 	1.82571e-05 	-5.17433e-07 	0 	1.90389e-06 	0 	2.16747e-05
0.0319813 	1.97438e-05 	-6.7263e-07 	0 	2.53827e-06 	0 	2.34613e-05
0.0366872 	2.09408e-05 	-8.43352e-07 	0 	3.2388e-06 	0 	2.49171e-05
0.0416269 	2.19033e-05 	-1.02828e-06 	0 	3.98863e-06 	0 	2.60929e-05
0.0468052 	2.27042e-05 	-1.22619e-06 	0 	4.77208e-06 	0 	2.70597e-05
0.0522283 	2.33829e-05 	-1.4369e-06 	0 	5.57819e-06 	0 	2.78509e-05
0.057904 	2.39642e-05 	-1.66018e-06 	0 	6.39776e-06 	0 	2.84856e-05
0.0638408 	2.44716e-05 	-1.89555e-06 	0 	7.22298e-06 	0 	2.89862e-05
0.0700481 	2.49237e-05 	-2.14223e-06 	0 	8.04743e-06 	0 	2.93758e-05
0.0765359 	2.53368e-05 	-2.39966e-06 	0 	8.86697e-06 	0 	2.96757e-05
0.0833147 	2.57247e-05 	-2.66816e-06 	0 	9.67948e-06 	0 	2.99036e-05
0.0903958 	2.60989e-05 	-2.94868e-06 	0 	1.04842e-05 	0 	3.0075e-05
0.0977906 	2.64673e-05 	-3.24257e-06 	0 	1.12819e-05 	0 	3.02032e-05
0.105511 	2.68365e-05 	-3.55061e-06 	0 	1.20731e-05 	0 	3.02988e-05
0.11357 	2.72131e-05 	-3.87311e-06 	0 	1.28578e-05 	0 	3.03685e-05
0.121979 	2.76032e-05 	-4.20955e-06 	0 	1.36381e-05 	0 	3.0417e-05
0.130752 	2.80118e-05 	-4.55951e-06 	0 	1.44154e-05 	0 	3.04453e-05
0.139902 	2.84414e-05 	-4.92395e-06 	0 	1.5189e-05 	0 	3.04533e-05
0.149443 	2.88923e-05 	-5.30471e-06 	0 	1.59583e-05 	0 	3.04442e-05
0.159388 	2.93664e-05 	-5.70403e-06 	0 	1.67227e-05 	0 	3.04202e-05
0.169752 	2.98663e-05 	-6.12319e-06 	0 	1.74826e-05 	0 	3.03826e-05
0.180549 	3.03914e-05 	-6.5628e-06 	0 	1.82393e-05 	0 	3.0334e-05
0.191793 	3.09353e-05 	-7.02359e-06 	0 	1.89931e-05 	0 	3.02782e-05
0.2035 	3.14944e-05 	-7.50676e-06 	0 	1.97441e-05 	0 	3.02217e-05
0.215683 	3.20777e-05 	-8.01278e-06 	0 	2.04915e-05 	0 	3.01733e-05
0.228358 	3.2702e-05 	-8.53991e-06 	0 	2.12345e-05 	0 	3.01446e-05
0.24154 	3.33787e-05 	-9.08473e-06 	0 	2.19711e-05 	0 	3.01491e-05
0.255244 	3.41095e-05 	-9.64353e-06 	0 	2.26992e-05 	0 	3.0199e-05
0.269485 	3.48933e-05 	-1.02135e-05 	0 	2.3417e-05 	0 	3.03034e-05
0.284277 	3.5728e-05 	-1.07924e-05 	0 	2.4124e-05 	0 	3.0466e-05
0.299635 	3.66078e-05 	-1.13775e-05 	0 	2.48211e-05 	0 	3.06905e-05
0.315573 	3.75358e-05 	-1.19684e-05 	0 	2.55085e-05 	0 	3.09897e-05
0.332106 	3.85143e-05 	-1.25677e-05 	0 	2.6182e-05 	0 	3.13726e-05
0.349247 	3.95248e-05 	-1.31762e-05 	0 	2.68346e-05 	0 	3.18243e-05
0.36701 	4.05558e-05 	-1.3795e-05 	0 	2.74628e-05 	0 	3.22997e-05
0.385408 	4.16196e-05 	-1.44263e-05 	0 	2.80685e-05 	0 	3.27522e-05
0.404452 	4.27385e-05 	-1.50692e-05 	0 	2.86548e-05 	0 	3.31768e-05
0.424154 	4.39258e-05 	-1.57184e-05 	0 	2.92218e-05 	0 	3.3588e-05
0.444525 	4.51621e-05 	-1.63605e-05 	0 	2.97636e-05 	0 	3.39772e-05
0.465576 	4.64069e-05 	-1.69798e-05 	0 	3.02639e-05 	0 	3.43381e-05
0.487314 	4.76418e-05 	-1.75733e-05 	0 	3.07093e-05 	0 	3.46868e-05
0.509747 	4.88899e-05 	-1.81553e-05 	0 	3.11033e-05 	0 	3.50162e-05
0.532883 	5.01748e-05 	-1.87316e-05 	0 	3.14477e-05 	0 	3.53069e-05
0.556727 	5.15044e-05 	-1.92867e-05 	0 	3.17297e-05 	0 	3.55705e-05
0.581282 	5.2857e-05 	-1.98055e-05 	0 	3.19363e-05 	0 	3.58174e-05
0.606552 	5.41853e-05 	-2.02861e-05 	0 	3.20692e-05 	0 	3.60431e-05
0.632537 	5.54646e-05 	-2.07291e-05 	0 	3.21488e-05 	0 	3.62485e-05
0.659237 	5.67013e-05 	-2.11358e-05 	0 	3.21998e-05 	0 	3.64088e-05
0.686649 	5.78926e-05 	-2.1501e-05 	0 	3.2221e-05 	0 	3.64997e-05
0.714769 	5.90273e-05 	-2.18118e-05 	0 	3.21802e-05 	0 	3.65441e-05
0.74359 	6.00646e-05 	-2.20523e-05 	0 	3.20556e-05 	0 	3.6542e-05
0.773106 	6.0921e-05 	-2.22071e-05 	0 	3.18441e-05 	0 	3.64442e-05
0.803305 	6.15208e-05 	-2.22657e-05 	0 	3.15375e-05 	0 	3.62244e-05
0.834175 	6.18895e-05 	-2.22253e-05 	0 	3.11304e-05 	0 	3.59085e-05
0.865702 	6.21013e-05 	-2.20984e-05 	0 	3.06446e-05 	0 	3.55538e-05
0.897869 	6.21484e-05 	-2.18868e-05 	0 	3.01183e-05 	0 	3.51514e-05
0.930657 	6.19634e-05 	-2.15607e-05 	0 	2.95657e-05 	0 	3.46447e-05
0.964045 	6.1461e-05 	-2.11089e-05 	0 	2.89616e-05 	0 	3.40013e-05
0.998011 	6.0624e-05 	-2.05512e-05 	0 	2.82849e-05 	0 	3.32118e-05
1.03253 	5.95077e-05 	-1.99008e-05 	0 	2.75436e-05 	0 	3.22724e-05
1.06757 	5.81291e-05 	-1.91538e-05 	0 	2.67479e-05 	0 	3.12468e-05
1.10311 	5.65228e-05 	-1.83263e-05 	0 	2.59006e-05 	0 	3.01941e-05
1.13911 	5.47442e-05 	-1.74621e-05 	0 	2.50101e-05 	0 	2.90893e-05
1.17554 	5.27897e-05 	-1.65739e-05 	0 	2.40934e-05 	0 	2.78602e-05
1.21236 	5.06966e-05 	-1.56544e-05 	0 	2.31519e-05 	0 	2.65347e-05
1.24955 	4.85334e-05 	-1.47183e-05 	0 	2.22018e-05 	0 	2.52005e-05
1.28705 	4.63083e-05 	-1.37979e-05 	0 	2.12539e-05 	0 	2.39057e-05
1.32484 	4.39645e-05 	-1.28959e-05 	0 	2.03041e-05 	0 	2.26635e-05
1.36287 	4.15172e-05 	-1.20216e-05 	0 	1.93611e-05 	0 	2.14811e-05
1.4011 	3.9109e-05 	-1.12082e-05 	0 	1.84404e-05 	0 	2.03559e-05
1.43948 	3.68889e-05 	-1.04677e-05 	0 	1.75422e-05 	0 	1.93089e-05
1.47798 	3.48544e-05 	-9.78585e-06 	0 	1.66828e-05 	0 	1.83256e-05
1.51655 	3.2934e-05 	-9.15111e-06 	0 	1.58902e-05 	0 	1.73816e-05
1.55514 	3.11347e-05 	-8.56752e-06 	0 	1.51816e-05 	0 	1.64831e-05
1.59372 	2.94894e-05 	-8.03609e-06 	0 	1.45585e-05 	0 	1.5634e-05
1.63224 	2.79639e-05 	-7.56247e-06 	0 	1.40009e-05 	0 	1.48475e-05
1.67066 	2.65631e-05 	-7.14512e-06 	0 	1.34851e-05 	0 	1.41407e-05
1.70892 	2.53318e-05 	-6.7708e-06 	0 	1.2998e-05 	0 	1.35035e-05
1.747 	2.42466e-05 	-6.43467e-06 	0 	1.25333e-05 	0 	1.29103e-05
1.78485 	2.32712e-05 	-6.12915e-06 	0 	1.20939e-05 	0 	1.23599e-05
1.82243 	2.23957e-05 	-5.84632e-06 	0 	1.16848e-05 	0 	1.18648e-05
1.8597 	2.16127e-05 	-5.58719e-06 	0 	1.13035e-05 	0 	1.14198e-05
1.89663 	2.08954e-05 	-5.35253e-06 	0 	1.09499e-05 	0 	1.10106e-05
1.93317 	2.02191e-05 	-5.13227e-06 	0 	1.06255e-05 	0 	1.06324e-05
1.9693 	1.95716e-05 	-4.9155e-06 	0 	1.03234e-05 	0 	1.02815e-05
2.00498 	1.89659e-05 	-4.69708e-06 	0 	1.0035e-05 	0 	9.95595e-06
2.04017 	1.8402e-05 	-4.47965e-06 	0 	9.75259e-06 	0 	9.65244e-06
2.07486 	1.78548e-05 	-4.2647e-06 	0 	9.47447e-06 	0 	9.36706e-06
2.10902 	1.73169e-05 	-4.04803e-06 	0 	9.20347e-06 	0 	9.1039e-06
2.14261 	1.6784e-05 	-3.82383e-06 	0 	8.93931e-06 	0 	8.867e-06
2.17562 	1.625e-05 	-3.59442e-06 	0 	8.6822e-06 	0 	8.65055e-06
2.20803 	1.57231e-05 	-3.36828e-06 	0 	8.43204e-06 	0 	8.44533e-06
2.23981 	1.52135e-05 	-3.15098e-06 	0 	8.18821e-06 	0 	8.25626e-06
2.27095 	1.47203e-05 	-2.94016e-06 	0 	7.94988e-06 	0 	8.0891e-06
2.30144 	1.42361e-05 	-2.73056e-06 	0 	7.71463e-06 	0 	7.93413e-06
2.33126 	1.37648e-05 	-2.52058e-06 	0 	7.47946e-06 	0 	7.78537e-06
2.3604 	1.33118e-05 	-2.31103e-06 	0 	7.2442e-06 	0 	7.65349e-06
2.38885 	1.28739e-05 	-2.10303e-06 	0 	7.01214e-06 	0 	7.54616e-06
2.41662 	1.24488e-05 	-1.898e-06 	0 	6.78508e-06 	0 	7.45928e-06
2.44368 	1.20395e-05 	-1.69617e-06 	0 	6.561e-06 	0 	7.38511e-06
2.47004 	1.16561e-05 	-1.49788e-06 	0 	6.33654e-06 	0 	7.31996e-06
2.4957 	1.13079e-05 	-1.3049e-06 	0 	6.11068e-06 	0 	7.26711e-06
2.52065 	1.09881e-05 	-1.11815e-06 	0 	5.88776e-06 	0 	7.2277e-06
2.54491 	1.06874e-05 	-9.37853e-07 	0 	5.67292e-06 	0 	7.1999e-06
2.56846 	1.04112e-05 	-7.63789e-07 	0 	5.46709e-06 	0 	7.1812e-06
2.59133 	1.01707e-05 	-5.95945e-07 	0 	5.26913e-06 	0 	7.17017e-06
2.6135 	9.97139e-06 	-4.35265e-07 	0 	5.07806e-06 	0 	7.16665e-06
2.63499 	9.81479e-06 	-2.81847e-07 	0 	4.89242e-06 	0 	7.17208e-06
2.65581 	9.7007e-06 	-1.33867e-07 	0 	4.71207e-06 	0 	7.18759e-06
2.67596 	9.62785e-06 	1.07797e-08 	0 	4.53886e-06 	0 	7.21288e-06
2.69545 	9.59666e-06 	1.5355e-07 	0 	4.37357e-06 	0 	7.25102e-06
2.7143 	9.61132e-06 	2.95773e-07 	0 	4.2156e-06 	0 	7.30908e-06
2.73252 	9.67657e-06 	4.37843e-07 	0 	4.06481e-06 	0 	7.3899e-06
2.75011 	9.79745e-06 	5.79312e-07 	0 	3.9216e-06 	0 	7.48944e-06
2.7671 	9.98105e-06 	7.20384e-07 	0 	3.78618e-06 	0 	7.60088e-06
2.78349 	1.02389e-05 	8.62217e-07 	0 	3.65832e-06 	0 	7.71692e-06
2.79929 	1.05856e-05 	1.00628e-06 	0 	3.53703e-06 	0 	7.83282e-06
2.81452 	1.10334e-05 	1.15279e-06 	0 	3.42115e-06 	0 	7.94563e-06
2.8292 	1.15907e-05 	1.30031e-06 	0 	3.31068e-06 	0 	8.0512e-06
2.84334 	1.22594e-05 	1.44747e-06 	0 	3.2061e-06 	0 	8.14646e-06
2.85694 	1.30385e-05 	1.59386e-06 	0 	3.10664e-06 	0 	8.22873e-06
2.87004 	1.39348e-05 	1.73885e-06 	0 	3.00982e-06 	0 	8.29328e-06
2.88263 	1.49592e-05 	1.88015e-06 	0 	2.91214e-06 	0 	8.33462e-06
2.89474 	1.61158e-05 	2.01391e-06 	0 	2.80962e-06 	0 	8.34853e-06
2.90637 	1.74002e-05 	2.13612e-06 	0 	2.69832e-06 	0 	8.33383e-06
2.91755 	1.88026e-05 	2.24296e-06 	0 	2.57408e-06 	0 	8.29024e-06
2.92828 	2.03009e-05 	2.33023e-06 	0 	2.43316e-06 	0 	8.21283e-06
2.93857 	2.18474e-05 	2.39312e-06 	0 	2.27386e-06 	0 	8.09215e-06
2.94845 	2.33682e-05 	2.42428e-06 	0 	2.09479e-06 	0 	7.91618e-06
2.95791 	2.47701e-05 	2.41525e-06 	0 	1.89473e-06 	0 	7.67606e-06
2.96697 	2.59305e-05 	2.35788e-06 	0 	1.67425e-06 	0 	7.36864e-06
2.97563 	2.66893e-05 	2.24265e-06 	0 	1.43555e-06 	0 	6.99059e-06
2.98389 	2.68681e-05 	2.06316e-06 	0 	1.18471e-06 	0 	6.54031e-06
2.99176 	2.62298e-05 	1.81529e-06 	0 	9.31159e-07 	0 	6.01043e-06
2.99923 	2.44593e-05 	1.49916e-06 	0 	6.86498e-07 	0 	5.38204e-06
3.00628 	2.1326e-05 	1.13307e-06 	0 	4.64801e-07 	0 	4.64008e-06
3.01289 	1.68941e-05 	7.57561e-07 	0 	2.79865e-07 	0 	3.78246e-06
3.01902 	1.16684e-05 	4.25302e-07 	0 	1.42108e-07 	0 	2.82406e-06
3.02273 	8.26718e-06 	2.49876e-07 	0 	7.71504e-08 	0 	2.1768e-06
3.02539 	5.88219e-06 	1.55679e-07 	0 	4.61416e-08 	0 	1.66774e-06
