/*--------------------------------*- C++ -*----------------------------------*\
| =========                 |                                                 |
| \\      /  F ield         | OpenFOAM: The Open Source CFD Toolbox           |
|  \\    /   O peration     | Version:  2.4.0                                 |
|   \\  /    A nd           | Web:      www.OpenFOAM.org                      |
|    \\/     M anipulation  |                                                 |
\*---------------------------------------------------------------------------*/
FoamFile
{
    version     2.0;
    format      ascii;
    class       volScalarField;
    location    "8225";
    object      nut;
}
// * * * * * * * * * * * * * * * * * * * * * * * * * * * * * * * * * * * * * //

dimensions      [0 2 -1 0 0 0 0];

internalField   nonuniform List<scalar> 
32000
(
1.2224812e-12
1.3790901e-12
1.2452021e-12
1.0090008e-12
6.3451639e-13
2.9816734e-13
8.106714e-14
1.965637e-14
2.4672789e-14
3.0619812e-14
2.6088408e-14
2.1035086e-14
1.7460734e-14
1.530258e-14
1.3908629e-14
1.2715978e-14
1.1877758e-14
1.13951e-14
1.130302e-14
1.1383492e-14
1.1736369e-14
1.2342339e-14
1.3196254e-14
1.4503634e-14
1.6268003e-14
1.853911e-14
2.1439689e-14
2.49553e-14
2.9213005e-14
3.4318633e-14
4.0417064e-14
4.7788218e-14
5.6688818e-14
6.7365936e-14
8.0049186e-14
9.4980773e-14
1.1254991e-13
1.3300281e-13
1.5609285e-13
1.813732e-13
2.0827454e-13
2.3570916e-13
2.6238309e-13
2.8625084e-13
3.0629184e-13
3.2200383e-13
3.5403634e-13
4.6309802e-13
5.5850684e-13
6.3719255e-13
7.1151629e-13
7.7849458e-13
8.420551e-13
9.0044557e-13
9.5541255e-13
1.0062724e-12
1.05375e-12
1.097696e-12
1.1384168e-12
1.1758482e-12
1.2101461e-12
1.2413446e-12
1.2695656e-12
1.2948758e-12
1.3173791e-12
1.3371713e-12
1.3543474e-12
1.36901e-12
1.3812645e-12
1.3912497e-12
1.3991003e-12
1.4049081e-12
1.4088583e-12
1.4109608e-12
1.4112359e-12
1.4097499e-12
1.4068518e-12
1.4030868e-12
1.3979706e-12
1.3915619e-12
1.3841454e-12
1.3757773e-12
1.3665498e-12
1.356553e-12
1.3458599e-12
1.334546e-12
1.3226763e-12
1.3103052e-12
1.2975566e-12
1.2843713e-12
1.270879e-12
1.2570928e-12
1.2430615e-12
1.2288171e-12
1.2143796e-12
1.199773e-12
1.1849968e-12
1.1700303e-12
1.154848e-12
1.1394613e-12
1.1239508e-12
1.1084428e-12
1.0930438e-12
1.0777973e-12
1.0627201e-12
1.0478152e-12
1.033067e-12
1.0184593e-12
1.0039755e-12
9.8960808e-13
9.7535736e-13
9.6121445e-13
9.4717683e-13
9.332416e-13
9.1939957e-13
9.0565045e-13
8.9198571e-13
8.7839741e-13
8.6488296e-13
8.5143189e-13
8.3803404e-13
8.2468578e-13
8.1137373e-13
7.9808661e-13
7.8481669e-13
7.7155001e-13
7.5827208e-13
7.4497191e-13
7.3163202e-13
7.1823574e-13
7.0476563e-13
6.9120257e-13
6.7752091e-13
6.6370375e-13
6.4971514e-13
6.3553702e-13
6.2112157e-13
6.0645808e-13
5.9148148e-13
5.7618358e-13
5.604244e-13
5.4423695e-13
5.2736865e-13
5.0999748e-13
4.9169904e-13
4.7285582e-13
4.5259747e-13
4.3181107e-13
4.0870898e-13
3.8531971e-13
3.5766554e-13
3.3058009e-13
2.9345433e-13
2.5131795e-13
2.5620913e-13
2.7969868e-13
3.0195852e-13
3.2173745e-13
3.3738796e-13
3.4928928e-13
3.5826405e-13
3.6478502e-13
3.6933369e-13
3.7241959e-13
3.7560585e-13
3.8051518e-13
3.8589239e-13
3.9126288e-13
3.9663561e-13
4.0179349e-13
4.064616e-13
4.1034936e-13
4.1496072e-13
4.1550492e-13
4.1133062e-13
4.0275684e-13
3.9590166e-13
3.8941529e-13
3.8309643e-13
3.7755863e-13
3.7290456e-13
3.7088819e-13
3.7009422e-13
3.8156758e-13
4.085483e-13
4.421662e-13
4.8701691e-13
5.5387499e-13
6.538021e-13
8.0072979e-13
1.007742e-12
1.2776323e-12
1.5507093e-12
1.7337325e-12
1.71542e-12
1.5516517e-12
1.2773834e-12
1.1266178e-12
9.8764971e-13
1.067883e-12
2.4014817e-10
2.7090349e-10
2.4460222e-10
1.9822373e-10
1.2472528e-10
5.8701857e-11
1.6019007e-11
3.8752172e-12
4.829074e-12
6.0054186e-12
5.123853e-12
4.1310991e-12
3.4268978e-12
3.0011697e-12
2.7263883e-12
2.4913352e-12
2.3256207e-12
2.229583e-12
2.2104054e-12
2.2252737e-12
2.2936275e-12
2.4117669e-12
2.578485e-12
2.8341533e-12
3.1796118e-12
3.6245271e-12
4.1931267e-12
4.8825732e-12
5.7176769e-12
6.7192199e-12
7.9155477e-12
9.3616197e-12
1.1107981e-11
1.3203322e-11
1.5692857e-11
1.8624046e-11
2.2073389e-11
2.6089958e-11
3.0625883e-11
3.5593496e-11
4.0881054e-11
4.6274848e-11
5.1520233e-11
5.6214596e-11
6.0156535e-11
6.3244239e-11
6.9537343e-11
9.0965041e-11
1.0970622e-10
1.2516363e-10
1.3976484e-10
1.5292305e-10
1.6540994e-10
1.7688119e-10
1.8767995e-10
1.976719e-10
2.0699942e-10
2.1563322e-10
2.2363274e-10
2.3098602e-10
2.3772381e-10
2.4385277e-10
2.4939685e-10
2.5436914e-10
2.5879007e-10
2.6267842e-10
2.660529e-10
2.689336e-10
2.7134126e-10
2.7330314e-10
2.7484568e-10
2.7598692e-10
2.7676323e-10
2.7717656e-10
2.7723088e-10
2.769392e-10
2.7637016e-10
2.7563077e-10
2.7462592e-10
2.7336711e-10
2.7191033e-10
2.7026658e-10
2.6845395e-10
2.6649018e-10
2.6438961e-10
2.6216704e-10
2.5983528e-10
2.5740498e-10
2.549005e-10
2.5231021e-10
2.4965958e-10
2.469512e-10
2.4419465e-10
2.4139622e-10
2.3855984e-10
2.3569022e-10
2.3278725e-10
2.2984689e-10
2.2686413e-10
2.238412e-10
2.2079394e-10
2.1774716e-10
2.1472177e-10
2.1172636e-10
2.0876418e-10
2.0583584e-10
2.0293832e-10
2.0006836e-10
1.9722275e-10
1.944e-10
1.9160018e-10
1.8882153e-10
1.8606357e-10
1.8332572e-10
1.8060619e-10
1.779049e-10
1.7522019e-10
1.725505e-10
1.6989532e-10
1.6725258e-10
1.6462031e-10
1.6199778e-10
1.5938237e-10
1.5677186e-10
1.5416473e-10
1.5155823e-10
1.4894954e-10
1.4633647e-10
1.4371561e-10
1.4108367e-10
1.3843723e-10
1.3577253e-10
1.3308454e-10
1.3036993e-10
1.2762164e-10
1.2483614e-10
1.2200401e-10
1.1912315e-10
1.1618068e-10
1.131751e-10
1.100789e-10
1.0689857e-10
1.0358448e-10
1.0017161e-10
9.6576572e-11
9.2874528e-11
8.8894468e-11
8.481072e-11
8.0272015e-11
7.5677018e-11
7.0244066e-11
6.4923324e-11
5.7631216e-11
4.9352682e-11
5.0317339e-11
5.4939385e-11
5.9318748e-11
6.3209889e-11
6.6288652e-11
6.8630501e-11
7.0397286e-11
7.1681817e-11
7.257896e-11
7.3189775e-11
7.3822233e-11
7.4792477e-11
7.5852197e-11
7.6909635e-11
7.7966885e-11
7.8980924e-11
7.9897577e-11
8.0661392e-11
8.1563701e-11
8.1662063e-11
8.0833811e-11
7.9147868e-11
7.7804074e-11
7.6531101e-11
7.529153e-11
7.4206306e-11
7.3296709e-11
7.2905887e-11
7.2764398e-11
7.504461e-11
8.0364311e-11
8.6981601e-11
9.5816593e-11
1.0898865e-10
1.286683e-10
1.5758357e-10
1.9828094e-10
2.5124911e-10
3.0471594e-10
3.4043536e-10
3.366579e-10
3.0449686e-10
2.5073822e-10
2.2121828e-10
1.9398203e-10
2.0978591e-10
5.6416205e-09
6.3640577e-09
5.744492e-09
4.6558861e-09
2.9315986e-09
1.3823643e-09
3.7891265e-10
9.164808e-11
1.1327319e-10
1.4110661e-10
1.2061207e-10
9.7290955e-11
8.0699952e-11
7.0659754e-11
6.4188394e-11
5.8656807e-11
5.4749744e-11
5.2475971e-11
5.2010577e-11
5.2348685e-11
5.3943279e-11
5.6709613e-11
6.0614407e-11
6.6606621e-11
7.4709392e-11
8.514735e-11
9.8493887e-11
1.1468486e-10
1.3430055e-10
1.5782891e-10
1.8593369e-10
2.1990672e-10
2.609401e-10
3.1018322e-10
3.6870199e-10
4.3760552e-10
5.186862e-10
6.1311366e-10
7.1978016e-10
8.3662591e-10
9.6102597e-10
1.0879545e-09
1.2114163e-09
1.3219246e-09
1.4147165e-09
1.4872609e-09
1.6348354e-09
2.1383181e-09
2.5785183e-09
2.9416871e-09
3.2847683e-09
3.593931e-09
3.8873364e-09
4.156878e-09
4.4106321e-09
4.6454357e-09
4.8646394e-09
5.0675492e-09
5.25554e-09
5.4283577e-09
5.5867243e-09
5.7307948e-09
5.8611319e-09
5.9780415e-09
6.0820029e-09
6.1734555e-09
6.2528384e-09
6.3206223e-09
6.3772931e-09
6.4234903e-09
6.4598342e-09
6.4867475e-09
6.5050824e-09
6.5148903e-09
6.5162545e-09
6.5094849e-09
6.496194e-09
6.4788962e-09
6.4553551e-09
6.4258407e-09
6.3916688e-09
6.3530979e-09
6.310553e-09
6.2644507e-09
6.2151285e-09
6.1629337e-09
6.1081678e-09
6.0510813e-09
5.9922472e-09
5.9313914e-09
5.8691135e-09
5.8054742e-09
5.740699e-09
5.6749357e-09
5.6082774e-09
5.5408346e-09
5.4726051e-09
5.403494e-09
5.3333838e-09
5.2623268e-09
5.1906962e-09
5.119075e-09
5.0479551e-09
4.9775386e-09
4.9079018e-09
4.8390595e-09
4.7709403e-09
4.7034684e-09
4.6365681e-09
4.5702046e-09
4.5043795e-09
4.4390516e-09
4.3742099e-09
4.3098407e-09
4.2459018e-09
4.1823918e-09
4.1192715e-09
4.0565043e-09
3.9940784e-09
3.9319452e-09
3.8700582e-09
3.8084005e-09
3.7469103e-09
3.6855358e-09
3.6242412e-09
3.5629618e-09
3.5016312e-09
3.4401984e-09
3.3785827e-09
3.3167073e-09
3.2544917e-09
3.1918473e-09
3.128656e-09
3.0648398e-09
3.0002324e-09
2.9347509e-09
2.8681741e-09
2.8004526e-09
2.7312797e-09
2.6606236e-09
2.5878377e-09
2.5130753e-09
2.4351689e-09
2.3549418e-09
2.2704321e-09
2.1834094e-09
2.0898497e-09
1.9938569e-09
1.8871654e-09
1.7791592e-09
1.6514456e-09
1.5263919e-09
1.3550381e-09
1.1605601e-09
1.1834935e-09
1.29238e-09
1.3954986e-09
1.48712e-09
1.5596051e-09
1.6147563e-09
1.6563812e-09
1.6866571e-09
1.7078212e-09
1.7222727e-09
1.7372619e-09
1.7601388e-09
1.7850367e-09
1.8098535e-09
1.8346485e-09
1.8584e-09
1.8798298e-09
1.8976759e-09
1.9186863e-09
1.9207001e-09
1.9009874e-09
1.8613177e-09
1.8297999e-09
1.7998934e-09
1.7707889e-09
1.7453321e-09
1.7240485e-09
1.7149691e-09
1.7119586e-09
1.7660628e-09
1.8912845e-09
2.0467664e-09
2.2545051e-09
2.5642864e-09
3.0268417e-09
3.7056672e-09
4.6593192e-09
5.8971734e-09
7.1416943e-09
7.9707162e-09
7.8796758e-09
7.1320104e-09
5.8786459e-09
5.1925883e-09
4.5556532e-09
4.9305584e-09
4.932796e-08
5.5655103e-08
5.018415e-08
4.0699121e-08
2.5662023e-08
1.2138525e-08
3.3454732e-09
8.0880485e-10
9.9089503e-10
1.2368348e-09
1.0593952e-09
8.5506255e-10
7.0922408e-10
6.2087358e-10
5.6401472e-10
5.1544355e-10
4.8107491e-10
4.6097714e-10
4.567535e-10
4.596075e-10
4.7347533e-10
4.9763529e-10
5.3174689e-10
5.8413466e-10
6.5503157e-10
7.4638072e-10
8.6325194e-10
1.0051081e-09
1.1770092e-09
1.3832225e-09
1.6295417e-09
1.9272946e-09
2.2869706e-09
2.7186899e-09
3.2318256e-09
3.8360202e-09
4.5468977e-09
5.3748716e-09
6.310401e-09
7.3354265e-09
8.4269641e-09
9.5409405e-09
1.0624726e-08
1.159492e-08
1.2409278e-08
1.3043982e-08
1.4329804e-08
1.8740433e-08
2.2589709e-08
2.5767763e-08
2.8770307e-08
3.1475757e-08
3.4043694e-08
3.640291e-08
3.8624367e-08
4.0680268e-08
4.2600049e-08
4.4377499e-08
4.6024595e-08
4.753926e-08
4.8927811e-08
5.0191556e-08
5.1335398e-08
5.2361965e-08
5.3275415e-08
5.4079547e-08
5.4778163e-08
5.5375335e-08
5.5875274e-08
5.6283536e-08
5.6605515e-08
5.6844874e-08
5.7008988e-08
5.70985e-08
5.7113799e-08
5.7057738e-08
5.6944399e-08
5.6795811e-08
5.6592366e-08
5.6336399e-08
5.6039437e-08
5.5703743e-08
5.5333034e-08
5.4930964e-08
5.4500488e-08
5.4044655e-08
5.3566109e-08
5.3067048e-08
5.255251e-08
5.2020087e-08
5.1475047e-08
5.091793e-08
5.035072e-08
4.977472e-08
4.9190752e-08
4.8599796e-08
4.8001837e-08
4.7396052e-08
4.6781416e-08
4.6158397e-08
4.5530273e-08
4.4902169e-08
4.4278401e-08
4.3660751e-08
4.3049893e-08
4.2445963e-08
4.1848339e-08
4.1256362e-08
4.0669372e-08
4.0087069e-08
3.9509471e-08
3.893622e-08
3.8367223e-08
3.7802363e-08
3.7241274e-08
3.6683945e-08
3.6130035e-08
3.5579226e-08
3.5031417e-08
3.4486182e-08
3.3943116e-08
3.3402073e-08
3.2862512e-08
3.232398e-08
3.1786164e-08
3.1248498e-08
3.0710403e-08
3.017143e-08
2.9630873e-08
2.908806e-08
2.8542285e-08
2.7992772e-08
2.7438487e-08
2.6878745e-08
2.631209e-08
2.5737794e-08
2.5153917e-08
2.456003e-08
2.3953405e-08
2.3333798e-08
2.2695534e-08
2.2039971e-08
2.1356851e-08
2.065342e-08
1.9912438e-08
1.914947e-08
1.8329159e-08
1.7487589e-08
1.655213e-08
1.5605281e-08
1.4485445e-08
1.3389232e-08
1.1887407e-08
1.0183319e-08
1.0387396e-08
1.1344711e-08
1.2250834e-08
1.3055947e-08
1.3692874e-08
1.4177677e-08
1.4543772e-08
1.4810187e-08
1.4996615e-08
1.5124292e-08
1.5256877e-08
1.5457958e-08
1.5675822e-08
1.5892611e-08
1.6108884e-08
1.6315604e-08
1.6501521e-08
1.6655981e-08
1.6837172e-08
1.6850816e-08
1.6674667e-08
1.6325832e-08
1.6049585e-08
1.5786895e-08
1.5531471e-08
1.5308167e-08
1.512181e-08
1.5042385e-08
1.5018023e-08
1.549525e-08
1.6590231e-08
1.794709e-08
1.975993e-08
2.2463202e-08
2.6494294e-08
3.2395167e-08
4.0650999e-08
5.1306882e-08
6.1922896e-08
6.8946867e-08
6.8147638e-08
6.1830103e-08
5.1117677e-08
4.5303611e-08
3.9806052e-08
4.3165713e-08
2.5404618e-07
2.8674202e-07
2.5804773e-07
2.0963656e-07
1.3260482e-07
6.3100812e-08
1.7524175e-08
4.2332519e-09
5.1359954e-09
6.4257077e-09
5.5170222e-09
4.4560035e-09
3.6959688e-09
3.2349955e-09
2.9388412e-09
2.6859646e-09
2.5067519e-09
2.4013724e-09
2.3786053e-09
2.3928078e-09
2.4642399e-09
2.5892765e-09
2.7658535e-09
3.0372735e-09
3.4048975e-09
3.8786499e-09
4.4851431e-09
5.221695e-09
6.1144405e-09
7.1854576e-09
8.4646615e-09
1.0010905e-08
1.1878856e-08
1.4121303e-08
1.678706e-08
1.9925634e-08
2.3617465e-08
2.7917469e-08
3.2776997e-08
3.8102231e-08
4.3773931e-08
4.9563301e-08
5.5196576e-08
6.0239225e-08
6.4467451e-08
6.7747574e-08
7.434166e-08
9.7209583e-08
1.1706838e-07
1.3349114e-07
1.4900754e-07
1.629871e-07
1.7626026e-07
1.8845751e-07
1.9994798e-07
2.1058738e-07
2.2052874e-07
2.2973926e-07
2.382815e-07
2.4614423e-07
2.533599e-07
2.5993473e-07
2.6589362e-07
2.7124956e-07
2.7602346e-07
2.8023434e-07
2.8390125e-07
2.8704462e-07
2.8968562e-07
2.9185242e-07
2.9357242e-07
2.9486402e-07
2.9576436e-07
2.9627896e-07
2.9640581e-07
2.961612e-07
2.9561752e-07
2.9488904e-07
2.9387391e-07
2.9258382e-07
2.910785e-07
2.8936964e-07
2.8747649e-07
2.8541796e-07
2.8320943e-07
2.8086673e-07
2.7840365e-07
2.758316e-07
2.7317698e-07
2.7042716e-07
2.6760973e-07
2.6472754e-07
2.6179103e-07
2.5880706e-07
2.5578001e-07
2.5271508e-07
2.4961229e-07
2.4646749e-07
2.4327541e-07
2.4003862e-07
2.3677427e-07
2.3350908e-07
2.3026561e-07
2.2705321e-07
2.2387548e-07
2.207332e-07
2.176232e-07
2.1454214e-07
2.1148664e-07
2.0845522e-07
2.0544803e-07
2.0246325e-07
1.9950046e-07
1.9655909e-07
1.9363729e-07
1.9073503e-07
1.8785057e-07
1.8498231e-07
1.8212974e-07
1.7929068e-07
1.7646305e-07
1.7364613e-07
1.708371e-07
1.6803365e-07
1.6523417e-07
1.6243573e-07
1.5963534e-07
1.5683067e-07
1.5401808e-07
1.5119408e-07
1.4835501e-07
1.4549686e-07
1.4261426e-07
1.3970365e-07
1.3675748e-07
1.3377198e-07
1.3073706e-07
1.276505e-07
1.2449808e-07
1.2127858e-07
1.1796247e-07
1.145569e-07
1.1100844e-07
1.0735489e-07
1.0350642e-07
9.9544223e-08
9.5284021e-08
9.0914026e-08
8.605568e-08
8.1139153e-08
7.5322325e-08
6.9630189e-08
6.1832688e-08
5.2983e-08
5.4062056e-08
5.9051771e-08
6.3773113e-08
6.7967691e-08
7.1285681e-08
7.3811738e-08
7.5719872e-08
7.7108453e-08
7.8080333e-08
7.8746948e-08
7.9439476e-08
8.0483032e-08
8.1607206e-08
8.2722574e-08
8.3832082e-08
8.4888257e-08
8.583244e-08
8.6611859e-08
8.7522959e-08
8.7558029e-08
8.6612135e-08
8.4785482e-08
8.33431e-08
8.1967561e-08
8.0631421e-08
7.946255e-08
7.8487029e-08
7.806417e-08
7.7936349e-08
8.0408111e-08
8.6029438e-08
9.2979403e-08
1.022498e-07
1.1606615e-07
1.3661419e-07
1.6654225e-07
2.0807435e-07
2.6109245e-07
3.1295606e-07
3.466753e-07
3.425448e-07
3.12257e-07
2.5986328e-07
2.3198763e-07
2.0465139e-07
2.2278751e-07
9.420514e-07
1.0636238e-06
9.5512236e-07
7.7849599e-07
4.956353e-07
2.3847358e-07
6.7025719e-08
1.6185312e-08
1.9420428e-08
2.436414e-08
2.0977256e-08
1.695686e-08
1.4065124e-08
1.2309024e-08
1.1183038e-08
1.0221684e-08
9.5396239e-09
9.1359337e-09
9.0461291e-09
9.0973318e-09
9.3655832e-09
9.837672e-09
1.050443e-08
1.1530344e-08
1.2921069e-08
1.4714423e-08
1.7008422e-08
1.979926e-08
2.3181213e-08
2.7238435e-08
3.2083216e-08
3.7938416e-08
4.5011689e-08
5.350363e-08
6.3599139e-08
7.5482383e-08
8.9453828e-08
1.0572424e-07
1.2411249e-07
1.4426276e-07
1.6572359e-07
1.8762958e-07
2.0894103e-07
2.2800794e-07
2.4395389e-07
2.5622154e-07
2.8058682e-07
3.6684195e-07
4.4098891e-07
5.0249975e-07
5.6060996e-07
6.1296297e-07
6.6269806e-07
7.0842972e-07
7.5155158e-07
7.9152295e-07
8.2892059e-07
8.63622e-07
8.9586397e-07
9.2559809e-07
9.5294382e-07
9.7792067e-07
1.0006183e-06
1.0210808e-06
1.0393823e-06
1.0555893e-06
1.0697686e-06
1.081992e-06
1.0923344e-06
1.1008972e-06
1.1077792e-06
1.1130457e-06
1.1168284e-06
1.1191629e-06
1.1200145e-06
1.1194533e-06
1.1177485e-06
1.1153305e-06
1.1118145e-06
1.1072414e-06
1.1018358e-06
1.0956417e-06
1.0887311e-06
1.0811754e-06
1.0730327e-06
1.064363e-06
1.0552187e-06
1.0456431e-06
1.035738e-06
1.0254542e-06
1.0148981e-06
1.004081e-06
9.9304312e-07
9.8181132e-07
9.7040303e-07
9.5883869e-07
9.4711931e-07
9.3522985e-07
9.2315125e-07
9.1089398e-07
8.9852393e-07
8.8614327e-07
8.7383822e-07
8.6164503e-07
8.4957803e-07
8.3764086e-07
8.2582204e-07
8.141094e-07
8.0249081e-07
7.9096112e-07
7.7952134e-07
7.6816508e-07
7.5689109e-07
7.4569763e-07
7.3457799e-07
7.2353243e-07
7.1255466e-07
7.0163888e-07
6.9078338e-07
6.7998017e-07
6.6922162e-07
6.585051e-07
6.4782022e-07
6.3715837e-07
6.2651354e-07
6.1587485e-07
6.0523105e-07
5.945735e-07
5.8388845e-07
5.7316283e-07
5.6238284e-07
5.5153339e-07
5.4059415e-07
5.2955182e-07
5.1837773e-07
5.0705773e-07
4.9555356e-07
4.8385693e-07
4.7191439e-07
4.5972096e-07
4.4716457e-07
4.3427252e-07
4.20842e-07
4.070168e-07
3.9245531e-07
3.774664e-07
3.6134937e-07
3.4481999e-07
3.2643864e-07
3.0784122e-07
2.8582535e-07
2.6428897e-07
2.3478701e-07
2.0126357e-07
2.0545043e-07
2.244338e-07
2.4239381e-07
2.5834315e-07
2.7095553e-07
2.8055541e-07
2.8780546e-07
2.9307553e-07
2.9675836e-07
2.9928032e-07
3.0189796e-07
3.0581871e-07
3.1000955e-07
3.1414572e-07
3.1823784e-07
3.2210364e-07
3.255204e-07
3.2830053e-07
3.3154093e-07
3.3144087e-07
3.2764599e-07
3.2060611e-07
3.1505829e-07
3.0974756e-07
3.0459469e-07
3.0007541e-07
2.9629057e-07
2.945728e-07
2.940013e-07
3.0318419e-07
3.2389296e-07
3.4943145e-07
3.8334887e-07
4.3383691e-07
5.0858543e-07
6.1653814e-07
7.6432502e-07
9.4955474e-07
1.1252715e-06
1.2351151e-06
1.2181907e-06
1.1171871e-06
9.3971868e-07
8.4921952e-07
7.5557202e-07
8.2780731e-07
2.7677794e-06
3.1245742e-06
2.8046619e-06
2.2982031e-06
1.4798804e-06
7.2528165e-07
2.0785899e-07
5.0312309e-08
5.9604979e-08
7.5017804e-08
6.4803241e-08
5.2435101e-08
4.3497632e-08
3.8062583e-08
3.4585754e-08
3.1615826e-08
2.9507992e-08
2.8250508e-08
2.7961889e-08
2.8110206e-08
2.8926862e-08
3.0373088e-08
3.2415613e-08
3.5562109e-08
3.9832587e-08
4.5342892e-08
5.2375403e-08
6.0954756e-08
7.1349699e-08
8.3814805e-08
9.8692772e-08
1.1666726e-07
1.3837666e-07
1.6443727e-07
1.9541366e-07
2.3185433e-07
2.7466183e-07
3.2448909e-07
3.807852e-07
4.4245203e-07
5.0810049e-07
5.7507622e-07
6.4017313e-07
6.9830903e-07
7.4666764e-07
7.8329481e-07
8.5488755e-07
1.1175972e-06
1.339406e-06
1.5244265e-06
1.699154e-06
1.8565972e-06
2.0062864e-06
2.1440877e-06
2.2742179e-06
2.395069e-06
2.5083807e-06
2.6137958e-06
2.7120193e-06
2.802889e-06
2.8867513e-06
2.9636482e-06
3.0338304e-06
3.0974101e-06
3.154588e-06
3.2055418e-06
3.2504498e-06
3.2895059e-06
3.3229128e-06
3.3509545e-06
3.3739107e-06
3.3919584e-06
3.4054578e-06
3.4145835e-06
3.419112e-06
3.4192812e-06
3.4158974e-06
3.4102638e-06
3.4012084e-06
3.3888397e-06
3.3738356e-06
3.3563281e-06
3.3365341e-06
3.314669e-06
3.2909101e-06
3.2654407e-06
3.2384219e-06
3.2099851e-06
3.1804542e-06
3.1496666e-06
3.1179608e-06
3.0853721e-06
3.0520276e-06
3.0180139e-06
2.9833881e-06
2.9482173e-06
2.9125083e-06
2.8762196e-06
2.8392967e-06
2.8017764e-06
2.7638649e-06
2.7258795e-06
2.6880887e-06
2.6506075e-06
2.6134838e-06
2.5767316e-06
2.5403188e-06
2.5042113e-06
2.4683752e-06
2.4327976e-06
2.3974841e-06
2.3624175e-06
2.3275963e-06
2.2930172e-06
2.2586617e-06
2.2245323e-06
2.1906115e-06
2.1568831e-06
2.1233433e-06
2.0899689e-06
2.0567379e-06
2.0236433e-06
1.9906543e-06
1.9577456e-06
1.9248995e-06
1.8920837e-06
1.8592644e-06
1.8264158e-06
1.7934964e-06
1.7604668e-06
1.7272851e-06
1.6939056e-06
1.6602666e-06
1.6263275e-06
1.5920007e-06
1.5572434e-06
1.5219383e-06
1.48606e-06
1.4494458e-06
1.4120795e-06
1.3736171e-06
1.3341425e-06
1.2930329e-06
1.2507297e-06
1.206182e-06
1.1603383e-06
1.1110422e-06
1.0604938e-06
1.0042601e-06
9.4737312e-07
8.7996743e-07
8.1404192e-07
7.2372109e-07
6.2078365e-07
6.3411511e-07
6.9274797e-07
7.4819808e-07
7.9739079e-07
8.362652e-07
8.6582479e-07
8.8812265e-07
9.0428278e-07
9.1552438e-07
9.2316854e-07
9.3107726e-07
9.4286521e-07
9.5532987e-07
9.6752033e-07
9.7946465e-07
9.9059504e-07
1.0002286e-06
1.0078384e-06
1.0167009e-06
1.0152597e-06
1.0025017e-06
9.8021511e-07
9.6266026e-07
9.4577704e-07
9.2941328e-07
9.1498827e-07
9.0280962e-07
8.9682642e-07
8.9442552e-07
9.2137307e-07
9.817087e-07
1.0559787e-06
1.1537762e-06
1.2991384e-06
1.5129039e-06
1.8179826e-06
2.227645e-06
2.7279851e-06
3.1823534e-06
3.4466654e-06
3.3825778e-06
3.1166011e-06
2.6560711e-06
2.4388715e-06
2.2011609e-06
2.4318341e-06
6.7569401e-06
7.6236632e-06
6.8687928e-06
5.6747146e-06
3.7195003e-06
1.8742577e-06
5.537316e-07
1.3520242e-07
1.5781679e-07
1.9934367e-07
1.7287418e-07
1.4004505e-07
1.16197e-07
1.016728e-07
9.2407362e-08
8.4481766e-08
7.8861557e-08
7.5475131e-08
7.4670844e-08
7.503534e-08
7.7175013e-08
8.0992754e-08
8.6383458e-08
9.4699973e-08
1.0601408e-07
1.2058959e-07
1.3917515e-07
1.6186206e-07
1.8940507e-07
2.2238225e-07
2.6171059e-07
3.0919248e-07
3.6651096e-07
4.3528577e-07
5.1698407e-07
6.129834e-07
7.2558747e-07
8.5651588e-07
1.0042997e-06
1.1659988e-06
1.3379125e-06
1.5130233e-06
1.6828123e-06
1.8338189e-06
1.958277e-06
2.0501644e-06
2.2281798e-06
2.9097271e-06
3.4725859e-06
3.9450224e-06
4.3908062e-06
4.7926627e-06
5.1750524e-06
5.5276852e-06
5.8613147e-06
6.1719743e-06
6.4640801e-06
6.7368076e-06
6.9918711e-06
7.2288338e-06
7.4485309e-06
7.65102e-06
7.836877e-06
8.0063228e-06
8.159796e-06
8.2976773e-06
8.4203466e-06
8.5282233e-06
8.6217503e-06
8.70158e-06
8.7683634e-06
8.822487e-06
8.8647443e-06
8.895782e-06
8.9147209e-06
8.9221272e-06
8.9201086e-06
8.9119868e-06
8.8947432e-06
8.8685939e-06
8.8352659e-06
8.7950934e-06
8.7486249e-06
8.696409e-06
8.6389026e-06
8.5765796e-06
8.5098594e-06
8.439078e-06
8.3651205e-06
8.2875195e-06
8.2072008e-06
8.1242577e-06
8.0390334e-06
7.9517699e-06
7.862629e-06
7.7717988e-06
7.6793125e-06
7.5850774e-06
7.4889663e-06
7.3910917e-06
7.2920087e-06
7.1925613e-06
7.0934649e-06
6.9950359e-06
6.8974126e-06
6.8006427e-06
6.7046544e-06
6.6093728e-06
6.5147221e-06
6.4206805e-06
6.3272721e-06
6.2344629e-06
6.1422575e-06
6.0506564e-06
5.9596195e-06
5.8691605e-06
5.779241e-06
5.6898257e-06
5.60091e-06
5.5124397e-06
5.4243624e-06
5.3366644e-06
5.2492702e-06
5.1621179e-06
5.0751649e-06
4.98833e-06
4.9015289e-06
4.8146963e-06
4.7277266e-06
4.6405197e-06
4.5529676e-06
4.4649531e-06
4.376316e-06
4.2869519e-06
4.1966328e-06
4.105247e-06
4.0124884e-06
3.9182897e-06
3.8222282e-06
3.7242578e-06
3.6234756e-06
3.520098e-06
3.4124919e-06
3.3018084e-06
3.1852853e-06
3.0653993e-06
2.9364796e-06
2.8042864e-06
2.6571444e-06
2.508265e-06
2.3316175e-06
2.1587913e-06
1.9219531e-06
1.6504003e-06
1.6874412e-06
1.8433838e-06
1.9907327e-06
2.121209e-06
2.2241809e-06
2.3023141e-06
2.3610976e-06
2.4034645e-06
2.432675e-06
2.4522468e-06
2.4723591e-06
2.5022451e-06
2.5333699e-06
2.5633491e-06
2.5922398e-06
2.6185252e-06
2.6404219e-06
2.6567066e-06
2.6757722e-06
2.6676937e-06
2.62937e-06
2.5677588e-06
2.5191856e-06
2.4722024e-06
2.4267098e-06
2.3863065e-06
2.3517713e-06
2.3329781e-06
2.3237564e-06
2.3894567e-06
2.5356121e-06
2.7159161e-06
2.9498406e-06
3.2973776e-06
3.8043103e-06
4.5176174e-06
5.4534179e-06
6.5613409e-06
7.5142026e-06
8.0056613e-06
7.7867496e-06
7.1764065e-06
6.1897988e-06
5.7743318e-06
5.3098313e-06
5.9112668e-06
1.4071575e-05
1.5874432e-05
1.4435573e-05
1.2066611e-05
8.1035297e-06
4.2395954e-06
1.3088305e-06
3.2617283e-07
3.7431282e-07
4.7464854e-07
4.1350963e-07
3.3544594e-07
2.7840457e-07
2.4360843e-07
2.2148659e-07
2.0251166e-07
1.8909321e-07
1.8090238e-07
1.7888093e-07
1.7966064e-07
1.8466073e-07
1.936664e-07
2.0637731e-07
2.2603146e-07
2.5285749e-07
2.8725795e-07
3.3122321e-07
3.8466747e-07
4.4993724e-07
5.2782734e-07
6.2059247e-07
7.3246084e-07
8.6736648e-07
1.0290647e-06
1.2208901e-06
1.4458294e-06
1.7090286e-06
2.0144313e-06
2.3584269e-06
2.7338983e-06
3.1319578e-06
3.5360165e-06
3.9259042e-06
4.2700035e-06
4.5497042e-06
4.74882e-06
5.138723e-06
6.6910737e-06
7.9431043e-06
8.9999617e-06
9.9956232e-06
1.0893642e-05
1.1748536e-05
1.2538462e-05
1.3287122e-05
1.398626e-05
1.4645572e-05
1.5263575e-05
1.5843727e-05
1.6385106e-05
1.6889449e-05
1.7356806e-05
1.7788316e-05
1.8184342e-05
1.8545701e-05
1.8873087e-05
1.9167181e-05
1.9428753e-05
1.9658619e-05
1.9858065e-05
2.0028393e-05
2.0170314e-05
2.0285304e-05
2.0375095e-05
2.0437585e-05
2.0473173e-05
2.0487048e-05
2.048646e-05
2.0464703e-05
2.0422075e-05
2.036237e-05
2.0286322e-05
2.019512e-05
2.0089966e-05
1.9971872e-05
1.9841893e-05
1.9700969e-05
1.9549848e-05
1.9390583e-05
1.9222068e-05
1.9046459e-05
1.8863967e-05
1.8675402e-05
1.8481358e-05
1.8282213e-05
1.8078434e-05
1.7870133e-05
1.7657136e-05
1.7439193e-05
1.7216604e-05
1.6990675e-05
1.6763365e-05
1.653634e-05
1.6310359e-05
1.6085769e-05
1.586271e-05
1.5641057e-05
1.5420683e-05
1.5201454e-05
1.4983355e-05
1.4766472e-05
1.4550759e-05
1.4336254e-05
1.4122987e-05
1.3910893e-05
1.3700024e-05
1.3490318e-05
1.3281717e-05
1.3074227e-05
1.2867746e-05
1.2662172e-05
1.2457489e-05
1.225354e-05
1.2050198e-05
1.1847378e-05
1.1644908e-05
1.1442606e-05
1.1240331e-05
1.1037852e-05
1.0834947e-05
1.0631377e-05
1.0426879e-05
1.0221092e-05
1.001378e-05
9.8044246e-06
9.5927692e-06
9.378114e-06
9.1602977e-06
8.938362e-06
8.7121853e-06
8.4796864e-06
8.241336e-06
7.9933788e-06
7.73842e-06
7.4700924e-06
7.1940231e-06
6.8971191e-06
6.5925494e-06
6.2532787e-06
5.9096895e-06
5.5012558e-06
5.1010884e-06
4.5525778e-06
3.9167211e-06
4.0096143e-06
4.3788543e-06
4.7271206e-06
5.0345987e-06
5.2766972e-06
5.4597669e-06
5.5968791e-06
5.6948629e-06
5.7614636e-06
5.8050077e-06
5.849228e-06
5.914891e-06
5.9818229e-06
6.0447174e-06
6.1036675e-06
6.1551022e-06
6.1949512e-06
6.2208452e-06
6.2519928e-06
6.2198911e-06
6.1148541e-06
5.9607297e-06
5.8395941e-06
5.7215159e-06
5.6072681e-06
5.5048997e-06
5.4161114e-06
5.3624102e-06
5.3314235e-06
5.4684638e-06
5.770445e-06
6.1483854e-06
6.6268821e-06
7.3399804e-06
8.3726198e-06
9.8050046e-06
1.1640861e-05
1.3746843e-05
1.5453445e-05
1.6183212e-05
1.5539547e-05
1.4228429e-05
1.2358725e-05
1.1654946e-05
1.0924622e-05
1.2203948e-05
2.5523048e-05
2.8846966e-05
2.6602477e-05
2.257416e-05
1.5606372e-05
8.5427156e-06
2.7938259e-06
7.2354564e-07
8.1523812e-07
1.0378465e-06
9.089561e-07
7.3851905e-07
6.1317652e-07
5.3658202e-07
4.8807666e-07
4.4632404e-07
4.1692623e-07
3.9867434e-07
3.9396732e-07
3.9542118e-07
4.0607144e-07
4.2549049e-07
4.5288279e-07
4.9543442e-07
5.5357441e-07
6.2780238e-07
7.2302309e-07
8.3780995e-07
9.7927437e-07
1.1473354e-06
1.3470257e-06
1.5873938e-06
1.8767436e-06
2.2228723e-06
2.6324747e-06
3.1111568e-06
3.6691173e-06
4.3142761e-06
5.0381798e-06
5.8248411e-06
6.6545543e-06
7.49153e-06
8.2925339e-06
8.9909225e-06
9.5480922e-06
9.9279008e-06
1.0703855e-05
1.3864068e-05
1.6355776e-05
1.8467113e-05
2.045102e-05
2.2240723e-05
2.394345e-05
2.5519205e-05
2.701383e-05
2.8412759e-05
2.973476e-05
3.097779e-05
3.2147806e-05
3.3243383e-05
3.4267772e-05
3.522108e-05
3.6105377e-05
3.6921281e-05
3.7670204e-05
3.8353349e-05
3.8971856e-05
3.9527038e-05
4.0020276e-05
4.0453864e-05
4.0830168e-05
4.1150371e-05
4.1417022e-05
4.1633154e-05
4.1796749e-05
4.1904519e-05
4.196863e-05
4.2002852e-05
4.1994257e-05
4.1943007e-05
4.1856367e-05
4.1735762e-05
4.1583438e-05
4.1401678e-05
4.1192431e-05
4.0957728e-05
4.069939e-05
4.041892e-05
4.0120162e-05
3.9801252e-05
3.9466259e-05
3.911562e-05
3.8751042e-05
3.8373711e-05
3.7984407e-05
3.7584113e-05
3.7173097e-05
3.6751082e-05
3.6317626e-05
3.5873416e-05
3.5421128e-05
3.4964736e-05
3.4507628e-05
3.4051366e-05
3.3596692e-05
3.3143954e-05
3.2692992e-05
3.2243646e-05
3.1795738e-05
3.1349312e-05
3.0904608e-05
3.0461608e-05
3.0020451e-05
2.9581261e-05
2.9143969e-05
2.8708737e-05
2.8275496e-05
2.7844183e-05
2.7414858e-05
2.6987365e-05
2.6561546e-05
2.6137406e-05
2.5714672e-05
2.5293128e-05
2.4872632e-05
2.4452872e-05
2.4033511e-05
2.3614289e-05
2.3194767e-05
2.2774518e-05
2.2353075e-05
2.1929925e-05
2.150435e-05
2.1075878e-05
2.064347e-05
2.0206601e-05
1.9763857e-05
1.931488e-05
1.8857758e-05
1.8392199e-05
1.7913942e-05
1.7423832e-05
1.6914223e-05
1.6390256e-05
1.5838934e-05
1.5271444e-05
1.4660983e-05
1.4034028e-05
1.333496e-05
1.2625507e-05
1.1780222e-05
1.0949401e-05
9.8103216e-06
8.4670999e-06
8.6797678e-06
9.4715374e-06
1.0215847e-05
1.0870382e-05
1.1383922e-05
1.1770468e-05
1.2058134e-05
1.2261468e-05
1.2397031e-05
1.2482669e-05
1.2568047e-05
1.2694974e-05
1.2820541e-05
1.2934034e-05
1.3035591e-05
1.311772e-05
1.3172228e-05
1.3195418e-05
1.3227964e-05
1.312508e-05
1.2865753e-05
1.2509965e-05
1.2235026e-05
1.1964089e-05
1.1702005e-05
1.1465073e-05
1.1256636e-05
1.1118486e-05
1.1029167e-05
1.1279538e-05
1.1819823e-05
1.2520194e-05
1.337833e-05
1.4668226e-05
1.6530409e-05
1.9082779e-05
2.2294882e-05
2.5884783e-05
2.8636001e-05
2.9537262e-05
2.7914204e-05
2.5202178e-05
2.1870789e-05
2.0671422e-05
1.9667678e-05
2.1904069e-05
4.1269007e-05
4.6850391e-05
4.3930511e-05
3.7931535e-05
2.7035244e-05
1.5530927e-05
5.439132e-06
1.4974262e-06
1.6583511e-06
2.1190667e-06
1.8671467e-06
1.5196901e-06
1.2623803e-06
1.1048393e-06
1.0054521e-06
9.1968503e-07
8.595744e-07
8.2141993e-07
8.1106643e-07
8.1334914e-07
8.3428768e-07
8.731108e-07
9.2783471e-07
1.0135841e-06
1.1303286e-06
1.2791013e-06
1.4706382e-06
1.6992237e-06
1.9828714e-06
2.3194659e-06
2.7174322e-06
3.1951223e-06
3.7685086e-06
4.4521465e-06
5.2578686e-06
6.1946262e-06
7.2804274e-06
8.5290984e-06
9.9216081e-06
1.1424288e-05
1.2996468e-05
1.4567189e-05
1.6052345e-05
1.7326095e-05
1.8319519e-05
1.8971061e-05
2.0412626e-05
2.6232435e-05
3.0737006e-05
3.4555947e-05
3.8131068e-05
4.1353831e-05
4.441324e-05
4.724548e-05
4.9929552e-05
5.2443752e-05
5.4820744e-05
5.7058403e-05
5.9166204e-05
6.1142849e-05
6.2994075e-05
6.4720516e-05
6.6325875e-05
6.7811472e-05
6.9179811e-05
7.04331e-05
7.1573338e-05
7.2602821e-05
7.352389e-05
7.4340442e-05
7.5056551e-05
7.5674176e-05
7.6197472e-05
7.6630904e-05
7.6974804e-05
7.721848e-05
7.7383334e-05
7.7494625e-05
7.7530136e-05
7.7489408e-05
7.7384718e-05
7.7218585e-05
7.6994757e-05
7.6717064e-05
7.6388811e-05
7.601343e-05
7.5594001e-05
7.5133254e-05
7.4637062e-05
7.4103318e-05
7.3538292e-05
7.2942874e-05
7.2320108e-05
7.1672048e-05
7.1000057e-05
7.030589e-05
6.9590035e-05
6.8852073e-05
6.8091284e-05