/*--------------------------------*- C++ -*----------------------------------*\
| =========                 |                                                 |
| \\      /  F ield         | OpenFOAM: The Open Source CFD Toolbox           |
|  \\    /   O peration     | Version:  2.4.0                                 |
|   \\  /    A nd           | Web:      www.OpenFOAM.org                      |
|    \\/     M anipulation  |                                                 |
\*---------------------------------------------------------------------------*/
FoamFile
{
    version     2.0;
    format      ascii;
    class       volScalarField;
    location    "8225";
    object      p;
}
// * * * * * * * * * * * * * * * * * * * * * * * * * * * * * * * * * * * * * //

dimensions      [0 2 -2 0 0 0 0];

internalField   nonuniform List<scalar> 
32000
(
-0.27562386
-0.19001857
-0.23736719
-0.21377166
-0.22264004
-0.199486
-0.17539519
-0.15290762
-0.14243172
-0.13399113
-0.1275876
-0.12249462
-0.11850611
-0.1150453
-0.1121434
-0.1096063
-0.10755937
-0.10596963
-0.10469024
-0.1036454
-0.10281774
-0.102147
-0.10160077
-0.10113719
-0.10070026
-0.10025232
-0.099706512
-0.099063943
-0.0983421
-0.097529461
-0.096634543
-0.095663531
-0.094636587
-0.093578622
-0.092539781
-0.091575921
-0.090721736
-0.08990904
-0.089184551
-0.088532194
-0.088018224
-0.087591368
-0.087427453
-0.087321472
-0.087786127
-0.088095795
-0.089961754
-0.089296834
-0.088781616
-0.087310501
-0.085734336
-0.08366211
-0.081439966
-0.078924265
-0.076269015
-0.073426406
-0.0704711
-0.067392373
-0.064230489
-0.060988602
-0.057691163
-0.054346108
-0.050970062
-0.047571971
-0.044164101
-0.040754907
-0.037353853
-0.033968404
-0.030606085
-0.02727317
-0.023975464
-0.020718016
-0.017505363
-0.014341434
-0.011229667
-0.0081729677
-0.0051739594
-0.0022343491
0.00064424974
0.0034604223
0.0062134024
0.0089026191
0.011527572
0.014088225
0.016584851
0.01901768
0.021387167
0.023694181
0.025939434
0.02812384
0.030248421
0.032314291
0.034322829
0.036275172
0.038172566
0.040016554
0.04180848
0.043549407
0.045240863
0.046883614
0.048478573
0.050027328
0.051531218
0.052991951
0.054411421
0.055791162
0.057132704
0.058437873
0.059708038
0.060944573
0.06214914
0.063322995
0.064467606
0.065584324
0.066674335
0.067739226
0.068780139
0.069798305
0.070795187
0.071771938
0.072729722
0.07366999
0.074593869
0.075502514
0.076397379
0.077279576
0.078150332
0.079011051
0.079863008
0.080707338
0.081545752
0.08237929
0.08320974
0.084038201
0.084866919
0.085696535
0.086530411
0.087368106
0.088215072
0.089068578
0.08993844
0.090816609
0.0917221
0.092635209
0.093594337
0.094553389
0.095591469
0.096605499
0.097761532
0.09883396
0.10017291
0.10129189
0.10293186
0.1040467
0.10620795
0.10771554
0.10958115
0.11111252
0.11278421
0.11424906
0.11575323
0.11710421
0.11840926
0.11955801
0.1205705
0.12136292
0.12182103
0.12189372
0.12153094
0.12065137
0.11923332
0.11718193
0.11455224
0.11122547
0.10746757
0.10324945
0.098850669
0.093836522
0.088351343
0.082212985
0.075249328
0.067335243
0.057938481
0.046985154
0.032553453
0.014294655
-0.0081551232
-0.035696514
-0.068636101
-0.10930476
-0.15695175
-0.21718683
-0.28124442
-0.35843056
-0.40328504
-0.43166224
-0.41288456
-0.41301187
-0.3538579
-0.37661439
-0.27563351
-0.19002681
-0.23736338
-0.21376852
-0.222634
-0.19953677
-0.17548197
-0.15299566
-0.14249681
-0.13404912
-0.12763652
-0.12253543
-0.11854086
-0.11507584
-0.11217017
-0.10962936
-0.10757794
-0.10598431
-0.10470207
-0.10365489
-0.10282527
-0.102153
-0.10160561
-0.10114133
-0.10070418
-0.10025668
-0.099711832
-0.099070206
-0.098349257
-0.097537504
-0.096643372
-0.095672974
-0.094646372
-0.093588332
-0.092548841
-0.091583805
-0.090728509
-0.089914852
-0.089189369
-0.08853594
-0.08802099
-0.08759304
-0.087428351
-0.08732145
-0.087785778
-0.088094448
-0.08995842
-0.089292896
-0.088778317
-0.087307263
-0.08573126
-0.083659075
-0.081437014
-0.078921365
-0.076266191
-0.073423652
-0.070468429
-0.067389787
-0.064228
-0.060986214
-0.057688882
-0.054343938
-0.050968007
-0.047570033
-0.044162281
-0.040753205
-0.037352271
-0.033966941
-0.03060474
-0.027271941
-0.023974349
-0.020717013
-0.017504468
-0.014340644
-0.01122898
-0.0081723791
-0.0051734649
-0.0022339449
0.0006445672
0.0034606572
0.0062135588
0.0089027011
0.011527584
0.014088171
0.016584733
0.019017505
0.021386936
0.023693899
0.025939104
0.028123465
0.030248005
0.032313837
0.034322339
0.03627465
0.038172014
0.040015974
0.041807875
0.043548779
0.045240214
0.046882948
0.048477892
0.050026636
0.051530516
0.05299124
0.054410704
0.055790439
0.057131976
0.058437141
0.059707303
0.060943835
0.062148401
0.063322255
0.064466866
0.065583585
0.066673597
0.067738491
0.068779407
0.069797576
0.070794461
0.071771216
0.072729004
0.073669277
0.074593161
0.075501811
0.076396681
0.077278883
0.078149645
0.07901037
0.079862332
0.080706668
0.081545087
0.082378631
0.083209087
0.084037553
0.084866277
0.085695899
0.08652978
0.087367481
0.088214452
0.089067963
0.089937832
0.090816006
0.091721507
0.092634622
0.093593764
0.094552822
0.095590925
0.096604959
0.097761037
0.098833466
0.10017251
0.10129149
0.10293171
0.1040468
0.10620848
0.10771722
0.1095843
0.11111684
0.11278974
0.11425542
0.11576031
0.11711156
0.11841661
0.11956478
0.12057611
0.12136622
0.12182105
0.12188978
0.12152223
0.1206373
0.1192133
0.11715583
0.11451992
0.11118794
0.10742611
0.10320517
0.098802508
0.093783093
0.088292386
0.082146659
0.07517405
0.067247629
0.057835189
0.046856297
0.032389421
0.014094148
-0.0083953499
-0.035978236
-0.068965177
-0.109679
-0.15737512
-0.21762395
-0.28166032
-0.35869579
-0.40337326
-0.43163735
-0.41284389
-0.41297711
-0.35384354
-0.37661552
-0.2756429
-0.19003316
-0.23735976
-0.21376243
-0.22262572
-0.1995879
-0.17557134
-0.15308693
-0.14256514
-0.13411029
-0.12768826
-0.12257864
-0.11857768
-0.11510821
-0.11219855
-0.10965381
-0.10759767
-0.10599989
-0.10471464
-0.10366496
-0.10283325
-0.10215936
-0.10161073
-0.10114571
-0.10070831
-0.10026125
-0.099717427
-0.099076805
-0.098356812
-0.097546009
-0.096652724
-0.095682995
-0.094656778
-0.093598684
-0.092558531
-0.091592272
-0.090735816
-0.089921156
-0.089194634
-0.088540081
-0.088024102
-0.087594989
-0.08742948
-0.08732157
-0.087785531
-0.088093071
-0.089955015
-0.089288694
-0.088774839
-0.087303827
-0.08572802
-0.083655869
-0.081433908
-0.078918313
-0.076263224
-0.073420759
-0.070465626
-0.067387076
-0.064225393
-0.060983716
-0.057686499
-0.054341673
-0.050965864
-0.047568014
-0.044160388
-0.04075144
-0.037350633
-0.033965429
-0.030603353
-0.027270678
-0.023973207
-0.020715989
-0.01750356
-0.014339848
-0.011228292
-0.008171796
-0.0051729815
-0.0022335573
0.000644863
0.0034608657
0.0062136843
0.0089027479
0.011527556
0.014088073
0.01658457
0.019017279
0.021386653
0.023693561
0.025938716
0.02812303
0.030247527
0.032313319
0.034321784
0.036274061
0.038171394
0.040015326
0.0418072
0.043548081
0.045239495
0.046882211
0.04847714
0.050025872
0.051529743
0.05299046
0.054409917
0.055789646
0.057131179
0.05843634
0.059706498
0.060943029
0.062147594
0.063321449
0.06446606
0.065582781
0.066672796
0.067737692
0.068778612
0.069796785
0.070793675
0.071770434
0.072728228
0.073668507
0.074592396
0.075501053
0.076395929
0.077278137
0.078148905
0.079009637
0.079861606
0.080705949
0.081544375
0.082377926
0.083208389
0.084036861
0.084865593
0.085695221
0.086529109
0.087366817
0.088213795
0.089067312
0.089937191
0.090815372
0.091720886
0.092634008
0.093593169
0.094552231
0.095590367
0.096604402
0.097760543
0.098832963
0.10017214
0.10129109
0.10293163
0.10404691
0.1062091
0.10771898
0.10958763
0.11112139
0.11279557
0.11426209
0.11576776
0.11711928
0.11842432
0.11957184
0.12058193
0.12136956
0.12182091
0.12188542
0.12151283
0.12062221
0.11919191
0.11712801
0.11448554
0.11114807
0.10738212
0.10315816
0.098751392
0.09372638
0.0882298
0.082076243
0.075094111
0.067154579
0.057725441
0.04671941
0.032215342
0.01388164
-0.0086496254
-0.036276005
-0.069312277
-0.11007266
-0.15781821
-0.21807751
-0.28208439
-0.35895319
-0.40344272
-0.43159474
-0.41279109
-0.41293693
-0.35382479
-0.37661735
-0.27565065
-0.19003772
-0.23735364
-0.21375312
-0.2226144
-0.19963802
-0.17566034
-0.15317762
-0.14263342
-0.13417192
-0.12774052
-0.12262237
-0.11861499
-0.11514105
-0.11222737
-0.10967867
-0.10761772
-0.10601575
-0.10472742
-0.10367521
-0.10284136
-0.10216583
-0.10161593
-0.10115016
-0.10071251
-0.10026591
-0.099723128
-0.099083539
-0.098364536
-0.09755472
-0.096662322
-0.095693303
-0.094667512
-0.093609399
-0.092568611
-0.091601149
-0.090743551
-0.089927899
-0.089200345
-0.088544668
-0.088027651
-0.087597363
-0.087430999
-0.087322062
-0.087785585
-0.08809214
-0.089952031
-0.089284761
-0.088771513
-0.087300506
-0.085724858
-0.08365272
-0.081430839
-0.078915284
-0.076260269
-0.073417869
-0.070462818
-0.067384354
-0.064222771
-0.060981197
-0.057684092
-0.054339382
-0.050963692
-0.047565965
-0.044158463
-0.040749641
-0.03734896
-0.033963882
-0.030601932
-0.02726938
-0.023972031
-0.020714932
-0.017502619
-0.01433902
-0.011227574
-0.0081711829
-0.0051724696
-0.0022331424
0.00064518475
0.0034610986
0.0062138329
0.0089028164
0.011527549
0.014087994
0.016584424
0.01901707
0.021386384
0.023693237
0.02593834
0.028122607
0.030247059
0.032312809
0.034321237
0.036273478
0.038170779
0.040014682
0.041806529
0.043547385
0.045238778
0.046881475
0.04847639
0.05002511
0.05152897
0.052989678
0.054409129
0.055788852
0.057130379
0.058435536
0.059705691
0.06094222
0.062146784
0.063320638
0.06446525
0.065581972
0.066671989
0.067736888
0.068777811
0.069795988
0.070792882
0.071769647
0.072727445
0.073667729
0.074591624
0.075500287
0.076395169
0.077277384
0.078148158
0.079008896
0.079860871
0.080705221
0.081543654
0.082377211
0.08320768
0.084036159
0.084864897
0.085694532
0.086528427
0.08736614
0.088213125
0.089066648
0.089936535
0.090814722
0.091720248
0.092633375
0.093592554
0.09455162
0.095589786
0.096603819
0.09776002
0.098832428
0.10017173
0.10129066
0.10293151
0.1040469
0.10620972
0.10772079
0.10959104
0.11112603
0.11280151
0.11426889
0.11577534
0.11712711
0.11843214
0.119579
0.12058781
0.12137293
0.12182072
0.12188094
0.1215032
0.12060681
0.11917011
0.11709968
0.11445056
0.11110754
0.1073374
0.10311036
0.098699376
0.093668656
0.088166075
0.082004525
0.075012673
0.067059773
0.057613604
0.046580002
0.032038375
0.013666034
-0.0089070158
-0.036576601
-0.069661364
-0.11046634
-0.15825738
-0.21851932
-0.28248422
-0.35916967
-0.40346808
-0.4315194
-0.4127206
-0.41288848
-0.35380332
-0.37661723
-0.27565724
-0.19004125
-0.23734343
-0.2137385
-0.22259714
-0.19968725
-0.17575161
-0.15327036
-0.14270342
-0.13423571
-0.12779481
-0.1226679
-0.11865392
-0.11517535
-0.11225751
-0.10970469
-0.10763873
-0.10603237
-0.10474081
-0.10368595
-0.10284987
-0.10217261
-0.1016214
-0.10115483
-0.10071693
-0.10027081
-0.099729129
-0.099090641
-0.098372702
-0.097563954
-0.096672525
-0.095704296
-0.094679004
-0.09362093
-0.092579542
-0.091610885
-0.090752143
-0.089935503
-0.089206909
-0.088550093
-0.08803201
-0.087600511
-0.087433239
-0.087323245
-0.087786242
-0.088092008
-0.089949516
-0.089281099
-0.088768304
-0.08729727
-0.085721736
-0.083649594
-0.081427773
-0.078912249
-0.076257299
-0.073414959
-0.070459987
-0.067381608
-0.064220124
-0.060978654
-0.05768166
-0.054337065
-0.050961496
-0.047563892
-0.044156517
-0.040747821
-0.037347268
-0.033962317
-0.030600493
-0.027268067
-0.02397084
-0.020713861
-0.017501665
-0.014338181
-0.011226845
-0.0081705605
-0.0051719494
-0.0022327205
0.00064551225
0.0034613361
0.0062139847
0.0089028868
0.011527543
0.014087915
0.016584276
0.019016857
0.021386111
0.023692907
0.025937958
0.028122175
0.030246581
0.032312289
0.034320677
0.036272882
0.03817015
0.040014022
0.041805841
0.043546673
0.045238043
0.046880721
0.04847562
0.050024327
0.051528177
0.052988876
0.054408319
0.055788035
0.057129557
0.058434708
0.05970486
0.060941386
0.062145948
0.063319802
0.064464414
0.065581137
0.066671156
0.067736058
0.068776983
0.069795164
0.070792062
0.071768831
0.072726634
0.073666924
0.074590824
0.075499492
0.07639438
0.077276601
0.078147381
0.079008125
0.079860107
0.080704463
0.081542902
0.082376465
0.083206941
0.084035426
0.08486417
0.08569381
0.086527712
0.08736543
0.088212421
0.089065948
0.089935842
0.090814034
0.091719571
0.092632702
0.093591896
0.094550963
0.095589157
0.096603187
0.097759443
0.09883184
0.10017127
0.10129016
0.10293132
0.10404678
0.10621034
0.10772272
0.10959462
0.11113091
0.11280775
0.11427603
0.11578327
0.11713531
0.11844031
0.11958646
0.12059391
0.12137639
0.12182044
0.12187615
0.12149302
0.12059057
0.11914717
0.11706992
0.11441386
0.11106507
0.10729053
0.10306024
0.09864478
0.093608049
0.088099135
0.081929155
0.074927061
0.06696009
0.057496014
0.046433537
0.031852908
0.013440711
-0.0091751939
-0.036888605
-0.070021898
-0.11086982
-0.15870206
-0.2189558
-0.28286013
-0.35933288
-0.40342932
-0.43139211
-0.41262024
-0.41282476
-0.35377744
-0.37661399
-0.2756649
-0.19004603
-0.23732944
-0.21371663
-0.22257056
-0.1997339
-0.17584601
-0.15336634
-0.14277591
-0.13430246
-0.12785185
-0.12271588
-0.11869502
-0.11521164
-0.11228944
-0.10973228
-0.10766105
-0.10605003
-0.10475505
-0.10369737
-0.10285892
-0.10217983
-0.10162721
-0.10115981
-0.10072164
-0.10027603
-0.099735535
-0.099098244
-0.098381474
-0.097573907
-0.096683564
-0.095716243
-0.094691557
-0.093633613
-0.092591682
-0.091621854
-0.09076198
-0.089944367
-0.089214738
-0.088556779
-0.08803761
-0.087604872
-0.087436641
-0.08732557
-0.087787959
-0.088093141
-0.089947605
-0.089277795
-0.088765316
-0.087294246
-0.08571881
-0.083646674
-0.081424923
-0.078909446
-0.076254576
-0.073412312
-0.070457435
-0.067379155
-0.064217782
-0.060976424
-0.057679548
-0.054335074
-0.050959627
-0.047562145
-0.044154893
-0.040746319
-0.037345887
-0.033961056
-0.030599348
-0.027267036
-0.02396992
-0.02071305
-0.017500959
-0.014337575
-0.011226337
-0.0081701467
-0.0051716252
-0.0022324822
0.00064566817
0.0034614135
0.0062139875
0.0089028186
0.011527407
0.014087716
0.016584016
0.019016541
0.021385741
0.023692487
0.02593749
0.028121663
0.030246027
0.032311697
0.034320049
0.036272221
0.038169458
0.040013301
0.041805094
0.043545901
0.04523725
0.04687991
0.048474794
0.050023488
0.051527327
0.052988017
0.054407452
0.055787161
0.057128675
0.058433821
0.059703968
0.060940491
0.06214505
0.063318902
0.064463514
0.065580236
0.066670256
0.067735159
0.068776087
0.06979427
0.070791171
0.071767944
0.072725752
0.073666046
0.074589951
0.075498624
0.076393518
0.077275744
0.078146531
0.079007281
0.079859269
0.08070363
0.081542076
0.082375646
0.083206128
0.084034619
0.08486337
0.085693017
0.086526925
0.087364649
0.088211646
0.089065179
0.08993508
0.090813278
0.091718825
0.092631961
0.093591171
0.094550241
0.09558846
0.096602489
0.097758795
0.098831185
0.10017072
0.1012896
0.10293104
0.10404652
0.10621094
0.10772477
0.10959842
0.11113609
0.11281435
0.11428357
0.11579164
0.11714395
0.11844888
0.11959425
0.12060024
0.12137988
0.12181993
0.12187083
0.12148195
0.12057306
0.11912255
0.11703807
0.11437468
0.11101979
0.1072406
0.10300681
0.098586503
0.093543338
0.088027616
0.081848596
0.074835522
0.066853496
0.057370279
0.04627709
0.031655437
0.013201636
-0.0094586818
-0.037216985
-0.070399174
-0.1112884
-0.15915681
-0.21938884
-0.2832083
-0.35942864
-0.40330611
-0.43119425
-0.41247758
-0.41273952
-0.35374533
-0.37660818
-0.27567984
-0.19005896
-0.23731536
-0.21368764
-0.2225316
-0.19977483
-0.17594285
-0.15346571
-0.14285068
-0.13437213
-0.12791167
-0.12276637
-0.11873839
-0.11525001
-0.11232326
-0.10976157
-0.10768477
-0.10606881
-0.1047702
-0.10370951
-0.10286855
-0.10218751
-0.10163341
-0.10116512
-0.10072667
-0.10028161
-0.099742384
-0.099106404
-0.098390928
-0.097584683
-0.096695574
-0.095729312
-0.094705383
-0.093647703
-0.092605338
-0.091634406
-0.09077345
-0.089954922
-0.089224306
-0.088565241
-0.088045009
-0.087611045
-0.087441842
-0.087329716
-0.087791446
-0.08809626
-0.089946635
-0.089275212
-0.088762991
-0.087291963
-0.085716695
-0.083644653
-0.081423053
-0.078907701
-0.07625298
-0.073410853
-0.070456122
-0.067377984
-0.064216751
-0.060975525
-0.057678777
-0.054334423
-0.05095909
-0.047561715
-0.044154563
-0.040746081
-0.037345736
-0.033960983
-0.030599348
-0.027267103
-0.023970049
-0.020713234
-0.017501195
-0.014337859
-0.011226665
-0.0081705146
-0.0051720303
-0.0022329224
0.00064519485
0.0034609092
0.0062134537
0.0089022567
0.011526818
0.014087101
0.016583376
0.019015876
0.021385053
0.023691775
0.025936755
0.028120905
0.030245247
0.032310895
0.034319226
0.036271377
0.038168592
0.040012416
0.041804188
0.043544976
0.045236307
0.046878951
0.048473821
0.050022503
0.05152633
0.052987011
0.054406436
0.055786132
0.057127636
0.058432771
0.059702909
0.060939423
0.062143975
0.06331782
0.064462425
0.065579143
0.066669158
0.067734057
0.068774982
0.069793164
0.070790064
0.071766836
0.072724644
0.073664939
0.074588846
0.075497523
0.07639242
0.07727465
0.078145441
0.079006197
0.079858191
0.080702559
0.081541012
0.08237459
0.083205081
0.084033581
0.084862342
0.085691999
0.086525918
0.087363654
0.088210664
0.089064208
0.089934124
0.090812336
0.091717901
0.092631052
0.093590285
0.094549368
0.095587622
0.096601663
0.097758027
0.098830424
0.10017007
0.10128895
0.10293067
0.1040461
0.1062115
0.10772694
0.1096024
0.11114154
0.11282127
0.11429145
0.11580036
0.11715291
0.11845773
0.11960222
0.12060659
0.12138315
0.1218189
0.12186463
0.12146958
0.1205538
0.1190957
0.11700352
0.11433235
0.11097101
0.10718686
0.10294926
0.098523649
0.093473537
0.087950436
0.08176164
0.074736707
0.066738464
0.057234647
0.046108605
0.031443639
0.012946297
-0.0097601747
-0.037564592
-0.070796152
-0.11172489
-0.15962355
-0.21981779
-0.2835225
-0.35944218
-0.40307922
-0.43090911
-0.41228171
-0.41262872
-0.35370735
-0.37660399
-0.27571304
-0.19009238
-0.23730868
-0.21365459
-0.22247846
-0.19980661
-0.17604084
-0.15356883
-0.14292742
-0.13444459
-0.12797424
-0.12281936
-0.11878406
-0.11529052
-0.11235906
-0.10979263
-0.10770998
-0.10608879
-0.10478631
-0.10372244
-0.1028788
-0.1021957
-0.10164002
-0.1011708
-0.10073205
-0.10028757
-0.099749718
-0.099115184
-0.098401156
-0.097596407
-0.09670872
-0.095743717
-0.094720748
-0.093663533
-0.092620912
-0.091649014
-0.090787089
-0.089967776
-0.089236296
-0.088576244
-0.088055054
-0.087619963
-0.087449855
-0.087336775
-0.087797851
-0.088102504
-0.089947266
-0.089274131
-0.088762286
-0.087291524
-0.085716637
-0.083644889
-0.08142362
-0.078908549
-0.076254106
-0.073412219
-0.070457717
-0.067379778
-0.064218718
-0.060977637
-0.057681009
-0.05433675
-0.050961491
-0.047564168
-0.044157048
-0.040748581
-0.037348232
-0.033963463
-0.030601799
-0.027269512
-0.023972409
-0.020715537
-0.017503435
-0.014340032
-0.011228768
-0.0081725446
-0.0051739875
-0.0022348085
0.00064337848
0.0034591603
0.0062117692
0.0089006327
0.01152525
0.014085585
0.016581907
0.019014448
0.021383662
0.023690415
0.025935421
0.028119592
0.03024395
0.032309609
0.034317945
0.036270098
0.038167311
0.040011128
0.04180289
0.043543665
0.045234982
0.04687761
0.048472465
0.05002113
0.051524942
0.052985604
0.054405006
0.055784678
0.057126157
0.058431267
0.05970138
0.060937869
0.062142395
0.063316216
0.064460798
0.065577493
0.066667487
0.067732366
0.068773272
0.069791436
0.07078832
0.071765078
0.072722874
0.073663158
0.074587057
0.075495727
0.076390619
0.077272847
0.078143638
0.079004395
0.079856394
0.080700769
0.081539231
0.08237282
0.083203325
0.084031842
0.084860621
0.0856903
0.086524244
0.087362008
0.088209048
0.089062624
0.089932578
0.090810828
0.09171644
0.092629635
0.093588925
0.094548059
0.095586385
0.09660048
0.097756944
0.098829395
0.1001692
0.10128814
0.10293016
0.10404551
0.10621196
0.10772912
0.10960645
0.1111471
0.11282831
0.11429946
0.11580918
0.1171619
0.11846649
0.11960994
0.12061245
0.12138561
0.12181665
0.12185674
0.121455
0.12053177
0.11906548
0.11696503
0.11428551
0.11091728
0.10712777
0.10288596
0.098454439
0.093396724
0.087865505
0.081666011
0.074628118
0.066612225
0.057086017
0.045924522
0.031213535
0.012670336
-0.010084372
-0.037936479
-0.071218099
-0.11218438
-0.16010595
-0.22024279
-0.28379614
-0.35935826
-0.40272891
-0.43051917
-0.41202126
-0.41248928
-0.35366612
-0.37661012
-0.27577532
-0.19015783
-0.23731651
-0.21362094
-0.22241031
-0.1998262
-0.17613828
-0.15367671
-0.14300586
-0.13451978
-0.12803957
-0.12287492
-0.1188321
-0.11533327
-0.11239694
-0.10982559
-0.10773678
-0.10611005
-0.10480347
-0.10373621
-0.10288974
-0.10220444
-0.10164709
-0.10117687
-0.10073782
-0.10029396
-0.099757606
-0.099124685
-0.098412298
-0.097609267
-0.096723248
-0.095759771
-0.094738047
-0.093681588
-0.092638993
-0.091666374
-0.090803696
-0.089983841
-0.089251745
-0.088590956
-0.088069048
-0.087633065
-0.087462253
-0.087348447
-0.087808948
-0.088113568
-0.089950562
-0.089275754
-0.088764558
-0.087294379
-0.085720166
-0.083648947
-0.081428211
-0.078913568
-0.076259519
-0.073417943
-0.070463715
-0.067385986
-0.064225082
-0.060984104
-0.057687536
-0.054343294
-0.050968015
-0.047570638
-0.044163432
-0.040754853
-0.03735437
-0.033969444
-0.030607607
-0.027275135
-0.023977834
-0.020720758
-0.017508447
-0.014344832
-0.011233354
-0.0081769188
-0.0051781543
-0.0022387746
0.00063960699
0.0034555754
0.0062083614
0.0088973918
0.011522165
0.014082644
0.016579098
0.019011759
0.02138108
0.023687928
0.025933016
0.028117257
0.030241673
0.032307378
0.034315749
0.036267925
0.038165151
0.040008971
0.041800727
0.043541489
0.045232785
0.046875391
0.048470217
0.050018853
0.051522635
0.052983256
0.054402609
0.05578223
0.057123654
0.058428707
0.059698761
0.06093519
0.062139656
0.063313417
0.06445794
0.065574576
0.066664513
0.067729337
0.068770189
0.069788303
0.070785139
0.071761853
0.072719607
0.073659855
0.07458372
0.07549236
0.076387228
0.077269437
0.078140213
0.079000961
0.079852955
0.080697332
0.081535802
0.082369405
0.08319993
0.084028474
0.084857287
0.085687007
0.086521
0.08735882
0.088205925
0.089059573
0.089929609
0.090807949
0.091713665
0.092626971
0.09358639
0.094545654
0.095584141
0.096598384
0.097755055
0.098827672
0.10016776
0.10128688
0.10292934
0.10404462
0.10621212
0.10773104
0.10961022
0.11115236
0.11283501
0.11430705
0.11581746
0.11717019
0.11847435
0.11961646
0.12061675
0.12138602
0.12181179
0.12184562
0.12143649
0.12050505
0.11902979
0.1169203
0.11423169
0.11085598
0.1070606
0.10281402
0.098375746
0.093309551
0.08776923
0.081557829
0.074505554
0.066470194
0.056919332
0.045719157
0.030958931
0.012367152
-0.010438135
-0.038339563
-0.071671552
-0.11267206
-0.16060598
-0.22066006
-0.28401727
-0.35915654
-0.4022305
-0.430001
-0.4116791
-0.41231341
-0.35362211
-0.37663437
-0.27586793
-0.19025573
-0.23733802
-0.21358475
-0.2223246
-0.19983069
-0.17623318
-0.15379111
-0.14308567
-0.13459765
-0.12810771
-0.12293314
-0.11888264
-0.11537841
-0.11243707
-0.1098606
-0.10776534
-0.10613273
-0.10482179
-0.10375092
-0.10290143
-0.10221381
-0.10165468
-0.10118342
-0.10074405
-0.10030087
-0.099766162
-0.099135065
-0.098424569
-0.097623547
-0.096739524
-0.09577794
-0.094757858
-0.09370258
-0.09266044
-0.091687492
-0.090824423
-0.090004424
-0.089272128
-0.08861102
-0.088088806
-0.087652337
-0.087481173
-0.087366991
-0.087827014
-0.088131485
-0.08995769
-0.089281112
-0.088770704
-0.087301252
-0.085727836
-0.083657201
-0.081437027
-0.078922793
-0.076269095
-0.073427763
-0.070473726
-0.067396111
-0.064235257
-0.060994272
-0.057697653
-0.054353317
-0.050977907
-0.047580366
-0.04417297
-0.040764177
-0.03736346
-0.033978284
-0.030616184
-0.027283439
-0.023985859
-0.0207285
-0.017515904
-0.014352006
-0.011240246
-0.0081835334
-0.0051844996
-0.0022448607
0.00063377144
0.0034499795
0.0062029925
0.0088922363
0.011517209
0.014077872
0.016574495
0.01900731
0.021376767
0.023683736
0.025928928
0.028113257
0.030237745
0.032303506
0.034311918
0.03626412
0.038161357
0.040005174
0.041796914
0.043537648
0.045228909
0.046871473
0.048466255
0.05001485
0.051518578
0.052979129
0.054398403
0.055777937
0.057119269
0.058424227
0.059694181
0.060930508
0.06213487
0.063308526
0.064452944
0.065569476
0.066659309
0.067724032
0.068764786
0.069782804
0.070779549
0.071756176
0.072713848
0.073654019
0.074577814
0.075486391
0.076381203
0.077263362
0.078134098
0.078994814
0.079846786
0.08069115
0.081529617
0.082363228
0.083193773
0.084022349
0.084851208
0.085680986
0.086515051
0.087352959
0.08820017
0.089053937
0.089924114
0.090802611
0.091708512
0.092622016
0.093581671
0.094541179
0.095579964
0.0965945
0.097751553
0.098824516
0.1001651
0.10128462
0.1029278
0.10404314
0.10621152
0.10773211
0.10961298
0.11115648
0.11284041
0.11431315
0.11582403
0.11717648
0.11847985
0.1196202
0.12061771
0.12138239
0.12180212
0.12182886
0.12141144
0.12047086
0.11898566
0.1168662
0.11416762
0.11078374
0.10698187
0.10272982
0.098283692
0.093207887
0.087657196
0.081432366
0.074363929
0.066306882
0.056728635
0.045485996
0.030673138
0.012030114
-0.010827625
-0.038779029
-0.0721598
-0.11318793
-0.16111834
-0.22105722
-0.28416591
-0.35881077
-0.40155429
-0.42932439
-0.4112293
-0.41208272
-0.35356664
-0.3766738
-0.2759782
-0.19037141
-0.23736094
-0.21353498
-0.2222137
-0.19981557
-0.17632318
-0.15391329
-0.14316637
-0.13467814
-0.12817879
-0.12299416
-0.11893585
-0.11542612
-0.11247964
-0.10989787
-0.10779585
-0.106157
-0.10484142
-0.10376672
-0.10291402
-0.10222391
-0.10166291
-0.10119054
-0.10075086
-0.10030844
-0.099775573
-0.099146576
-0.0984383
-0.097639673
-0.096758084
-0.095798885
-0.094780991
-0.093727485
-0.092686407
-0.091713694
-0.090850744
-0.090031155
-0.089299217
-0.088638345
-0.088116356
-0.087679901
-0.087508798
-0.087394586
-0.087854062
-0.088157752
-0.089969034
-0.089289928
-0.088779857
-0.087310774
-0.085737868
-0.083667519
-0.081447646
-0.078933567
-0.07628
-0.073438714
-0.070484696
-0.067407055
-0.064246142
-0.061005067
-0.057708343
-0.054363881
-0.050988335
-0.047590646
-0.044183095
-0.040774139
-0.037373254
-0.033987906
-0.030625631
-0.027292708
-0.02399495
-0.020737412
-0.017524639
-0.014360563
-0.011248628
-0.0081917402
-0.0051925378
-0.0022527367
0.0006260543
0.0034424154
0.0061955738
0.0088849556
0.011510058
0.014070842
0.016567575
0.01900049
0.021370037
0.023677085
0.025922343
0.028106727
0.030231257
0.032297049
0.034305478
0.036257684
0.038154915
0.039998711
0.04179042
0.043531113
0.045222328
0.046864844
0.048459589
0.050008149
0.051511817
0.052972292
0.054391478
0.055770917
0.057112146
0.058416994
0.059686833
0.060923041
0.062127282
0.063300813
0.064445104
0.065561509
0.066651215
0.067715812
0.068756441
0.069774337
0.070770963
0.071747474
0.072705037
0.073645102
0.074568799
0.075477284
0.076372012
0.077254097
0.078124767
0.078985428
0.079837356
0.080681688
0.081520136
0.082353742
0.083184297
0.084012899
0.084841801
0.085671641
0.086505789
0.087343801
0.08819114
0.089045059
0.089915417
0.090794122
0.091700272
0.092614051
0.093574037
0.094533894
0.095573113
0.096588086
0.097745713
0.098819214
0.10016058
0.10128075
0.102925
0.10404059
0.10620942
0.10773136
0.10961363
0.1111582
0.11284314
0.11431629
0.11582728
0.11717904
0.11848114
0.11961913
0.12061313
0.12137235
0.12178515
0.12180387
0.12137716
0.12042643
0.11893031
0.11679997
0.11409056
0.11069791
0.10688896
0.1026307
0.098175487
0.093088773
0.087526249
0.081286238
0.07419961
0.066118385
0.056509761
0.045220686
0.030352277
0.011656242
-0.011254456
-0.039254348
-0.072679277
-0.11372415
-0.16163003
-0.22141595
-0.28421961
-0.35829545
-0.40067231
-0.42845874
-0.41064147
-0.41176957
-0.35347993
-0.37671094
-0.27608552
-0.19048277
-0.23736662
-0.21345476
-0.22206483
-0.19977311
-0.17640544
-0.154043
-0.14324739
-0.1347611
-0.12825292
-0.1230582
-0.11899196
-0.11547665
-0.11252493
-0.10993769
-0.10782859
-0.10618311
-0.10486258
-0.10378378
-0.10292767
-0.10223493
-0.10167195
-0.10119843
-0.10075846
-0.1003169
-0.099786127
-0.099159588
-0.098453959
-0.097658226
-0.096779634
-0.095823453
-0.094808441
-0.093757454
-0.092718197
-0.091746405
-0.09088416
-0.090065578
-0.089334576
-0.088674473
-0.088153185
-0.087717151
-0.087546374
-0.087432242
-0.087890673
-0.088192209
-0.089983245
-0.089299879
-0.088788932
-0.087319364
-0.085746353
-0.083675795
-0.08145586
-0.078941657
-0.076288033
-0.073446683
-0.070492645
-0.067414999
-0.064254103
-0.061013062
-0.057716395
-0.054372007
-0.050996553
-0.047598967
-0.044191531
-0.040782697
-0.03738194
-0.033996721
-0.030634574
-0.027301779
-0.024004144
-0.020746724
-0.017534061
-0.014370089
-0.011258246
-0.0082014397
-0.0052023123
-0.0022625794
0.00061615521
0.003432469
0.0061855878
0.0088749374
0.011500014
0.014060779
0.016557498
0.018990402
0.021359943
0.023666985
0.025912239
0.028096619
0.030221145
0.032286931
0.034295352
0.036247547
0.038144761
0.039988537
0.04178022
0.043520887
0.04521208
0.046854586
0.048449354
0.049997928
0.05150158
0.052962027
0.054381174
0.055760565
0.057101739
0.058406524
0.059676296
0.060912431
0.062116593
0.063290043
0.064434248
0.065550565
0.066640181
0.067704686
0.068745223
0.069763026
0.07075956
0.07173598
0.072693454
0.073633433
0.074557047
0.075465454
0.07636011
0.077242127
0.078112738
0.078973348
0.079825234
0.080669535
0.081507963
0.082341562
0.083172124
0.084000748
0.08482969
0.085659587
0.086493815
0.08733193
0.0881794
0.089033475
0.089904024
0.090782949
0.091689371
0.092603452
0.093563811
0.094524064
0.095563792
0.096579275
0.0977376
0.098811752
0.1001541
0.10127509
0.10292072
0.10403663
0.10620515
0.10772786
0.10961105
0.11115633
0.11284191
0.11431509
0.11582578
0.11717636
0.11847662
0.11961157
0.12060127
0.12135411
0.12175909
0.12176889
0.12133203
0.12037031
0.11886248
0.11672061
0.11399982
0.11059814
0.10678176
0.10251674
0.09805131
0.092952436
0.087376617
0.08111965
0.074012762
0.065904844
0.056262879
0.044923645
0.029997682
0.011248241
-0.011714255
-0.039758968
-0.073220786
-0.11426875
-0.16212688
-0.22172124
-0.28416407
-0.35759614
-0.39956711
-0.4273816
-0.40988931
-0.4113459
-0.35333721
-0.37672143
-0.27617148
-0.19057098
-0.23733824
-0.21332837
-0.2218639
-0.19969272
-0.17647637
-0.15417995
-0.14332806
-0.13484602
-0.12833014
-0.12312545
-0.11905126
-0.11553036