/*--------------------------------*- C++ -*----------------------------------*\
| =========                 |                                                 |
| \\      /  F ield         | OpenFOAM: The Open Source CFD Toolbox           |
|  \\    /   O peration     | Version:  2.4.0                                 |
|   \\  /    A nd           | Web:      www.OpenFOAM.org                      |
|    \\/     M anipulation  |                                                 |
\*---------------------------------------------------------------------------*/
FoamFile
{
    version     2.0;
    format      ascii;
    class       volVectorField;
    location    "8177";
    object      U;
}
// * * * * * * * * * * * * * * * * * * * * * * * * * * * * * * * * * * * * * //

dimensions      [0 1 -1 0 0 0 0];

internalField   nonuniform List<vector> 
32000
(
(0.015806724 7.5742727e-05 -1.0014657e-20)
(0.012843768 -6.0274156e-06 -1.3462048e-21)
(0.019218185 -0.00052049101 -3.4063133e-21)
(0.015136633 -0.0011875493 -9.518922e-20)
(0.012539237 -0.0018961437 2.6037009e-19)
(0.0045901309 -0.0011657123 9.1150266e-19)
(-0.0015404405 0.00049289406 -3.1741902e-19)
(-0.0058278194 0.0027204512 -1.7250459e-19)
(-0.0057730351 0.0032897279 -1.3530158e-18)
(-0.005297723 0.0034491719 6.6420302e-19)
(-0.0046049778 0.0032963289 6.5135392e-19)
(-0.0040099647 0.0030716402 1.3804279e-18)
(-0.003578768 0.0028767075 1.3267752e-18)
(-0.0032648084 0.0027107329 7.6515303e-19)
(-0.0030208301 0.00255672 -6.1203259e-21)
(-0.0028165971 0.0024002958 3.8030121e-19)
(-0.0026345765 0.0022342694 5.2791935e-20)
(-0.0024980102 0.0020887865 -3.0369711e-19)
(-0.00240855 0.0019840897 -3.3996082e-19)
(-0.0023400551 0.0019016159 -5.0239362e-19)
(-0.0022964943 0.0018433727 -3.1185249e-19)
(-0.0022800891 0.0018103217 2.8801555e-19)
(-0.0022918597 0.0018026587 1.0728077e-18)
(-0.0023375831 0.0018239262 -3.0801844e-19)
(-0.0024153801 0.0018726839 -4.0573977e-19)
(-0.0025263977 0.0019490672 1.0526144e-18)
(-0.0026552804 0.0020412414 -5.8142497e-19)
(-0.0027830614 0.0021272078 -6.3853344e-19)
(-0.002915236 0.0022033334 5.1548546e-19)
(-0.0030547641 0.0022692665 -1.2220609e-18)
(-0.0031972678 0.0023194446 1.4940572e-19)
(-0.0033389098 0.0023487049 -8.2536633e-19)
(-0.0034743942 0.0023510347 -1.1001949e-18)
(-0.0035970811 0.0023199585 6.4742493e-19)
(-0.0037027504 0.0022509115 1.2495633e-18)
(-0.0037982561 0.0021479384 -5.6052364e-19)
(-0.0039075157 0.0020293797 1.9137506e-19)
(-0.0040203431 0.0018973103 4.5010678e-19)
(-0.0041197236 0.0017442024 -6.7659851e-19)
(-0.0041974385 0.0015684175 2.3076719e-19)
(-0.0042595125 0.0013752332 1.949925e-19)
(-0.0042792547 0.0011598774 6.5719362e-19)
(-0.0042980061 0.00093777667 1.9879676e-19)
(-0.004245763 0.00069821954 -4.9505429e-20)
(-0.0042839848 0.00047082909 3.1587863e-19)
(-0.0042284966 0.00023143466 1.0942652e-20)
(-0.0050225275 3.5704206e-05 -4.5587961e-21)
(-0.0061871222 3.3130935e-06 2.943424e-24)
(-0.006791126 3.0981424e-06 -3.5406712e-23)
(-0.0073363415 2.8699226e-06 3.6029045e-23)
(-0.0076857322 2.870709e-06 -2.0905464e-23)
(-0.0079868416 2.7657463e-06 5.5182474e-24)
(-0.0081899585 2.7523394e-06 3.3161096e-23)
(-0.0083531508 2.6768862e-06 -1.9712376e-23)
(-0.0084576615 2.6361944e-06 3.114733e-25)
(-0.0085292632 2.56246e-06 -6.6465094e-24)
(-0.0085617075 2.5008875e-06 6.7211461e-24)
(-0.0085674217 2.4194568e-06 -2.2036561e-23)
(-0.008543864 2.3385979e-06 1.2566099e-24)
(-0.0084972341 2.2463297e-06 1.9672618e-23)
(-0.0084277512 2.1531082e-06 -5.0994363e-24)
(-0.0083391014 2.0533472e-06 3.1796573e-24)
(-0.0082322083 1.9522185e-06 5.633459e-24)
(-0.0081094951 1.8474759e-06 3.8989204e-26)
(-0.0079720972 1.741907e-06 4.5176638e-24)
(-0.0078217769 1.634762e-06 3.8875869e-24)
(-0.0076596854 1.5277457e-06 -6.3476825e-24)
(-0.0074872448 1.4207312e-06 2.5839099e-24)
(-0.0073055516 1.3148154e-06 -8.7528548e-24)
(-0.0071158108 1.210305e-06 3.392574e-25)
(-0.0069190357 1.107718e-06 -7.7259346e-25)
(-0.0067162379 1.0073821e-06 1.3722149e-24)
(-0.0065083148 9.0961799e-07 -5.2490758e-25)
(-0.0062961308 8.1453343e-07 3.8145434e-25)
(-0.0060804206 7.223809e-07 1.4543243e-24)
(-0.0058619232 6.3368481e-07 8.0062585e-25)
(-0.0056414917 5.4878665e-07 -7.5333497e-25)
(-0.0054197838 4.6708442e-07 2.9263637e-26)
(-0.0051971631 3.8869777e-07 -1.0504334e-25)
(-0.0049742614 3.1415561e-07 3.8297272e-26)
(-0.0047515814 2.4317038e-07 1.7828322e-26)
(-0.0045295314 1.7572498e-07 1.6824697e-24)
(-0.0043085614 1.1194172e-07 -1.2084075e-24)
(-0.0040890348 5.1629032e-08 -4.064618e-25)
(-0.0038712409 -5.2084329e-09 -3.6007391e-25)
(-0.0036555313 -5.8659686e-08 1.7991128e-24)
(-0.003442177 -1.0890326e-07 -1.0805523e-24)
(-0.0032313518 -1.5604217e-07 -1.2758612e-24)
(-0.0030232973 -1.9998676e-07 6.4229242e-25)
(-0.0028182112 -2.4104654e-07 -3.0401591e-25)
(-0.0026162374 -2.7923877e-07 -3.3043104e-25)
(-0.0024175028 -3.1481217e-07 1.5146229e-24)
(-0.0022221199 -3.4766641e-07 -1.4034727e-24)
(-0.0020302238 -3.7815268e-07 2.8816227e-24)
(-0.0018418388 -4.0631224e-07 -3.570096e-25)
(-0.0016570662 -4.3220185e-07 -2.7012391e-25)
(-0.0014759175 -4.5616803e-07 2.3213412e-26)
(-0.001298437 -4.7804257e-07 -3.1515433e-25)
(-0.0011246644 -4.979838e-07 -5.4549532e-25)
(-0.0009547269 -5.1537108e-07 4.3382444e-26)
(-0.0007889947 -5.2999988e-07 1.2661563e-25)
(-0.00062768136 -5.4244713e-07 2.999738e-25)
(-0.00047094775 -5.5304118e-07 -1.2008791e-24)
(-0.00031882061 -5.6218793e-07 -2.7370368e-25)
(-0.00017122625 -5.703849e-07 -7.0561931e-25)
(-2.805764e-05 -5.7762079e-07 -1.7102231e-25)
(0.00011080354 -5.8403918e-07 -6.2005898e-26)
(0.00024550752 -5.8974974e-07 2.0881989e-24)
(0.00037611391 -5.9453876e-07 2.7153706e-24)
(0.00050260493 -5.9835526e-07 -1.56049e-25)
(0.00062503988 -6.0151613e-07 -6.8039641e-24)
(0.00074344126 -6.0380747e-07 -1.7362334e-26)
(0.00085780071 -6.0544255e-07 -5.8916097e-25)
(0.00096816505 -6.0646842e-07 6.1057829e-24)
(0.0010745036 -6.0684544e-07 -2.9408762e-25)
(0.0011768411 -6.068212e-07 -5.2333978e-25)
(0.0012752064 -6.0626766e-07 -6.9634704e-24)
(0.0013695458 -6.0522064e-07 6.2644538e-24)
(0.001459883 -6.0395613e-07 6.2723032e-24)
(0.0015462218 -6.0231192e-07 -7.1908709e-24)
(0.001628504 -6.0033841e-07 -2.6979984e-25)
(0.0017067249 -5.982166e-07 6.6040092e-24)
(0.001780878 -5.9590215e-07 -1.9557143e-25)
(0.0018508753 -5.93363e-07 -2.9645595e-25)
(0.001916699 -5.9089483e-07 -8.6188779e-24)
(0.0019782982 -5.8822953e-07 2.7855401e-25)
(0.002035581 -5.8555293e-07 -9.1716011e-25)
(0.0020884624 -5.829116e-07 -4.2561676e-25)
(0.0021368964 -5.8037469e-07 -3.3453764e-25)
(0.0021806915 -5.777249e-07 -3.4021114e-25)
(0.0022197989 -5.7547972e-07 1.4904456e-23)
(0.0022539931 -5.7306028e-07 -1.6340935e-23)
(0.0022831997 -5.7111424e-07 1.5949094e-23)
(0.0023070553 -5.6895836e-07 -8.8210011e-24)
(0.0023255858 -5.6759708e-07 8.3010336e-24)
(0.002338146 -5.6561719e-07 -6.1612377e-17)
(0.0023449751 -5.6515807e-07 -6.2312563e-17)
(0.0023449789 -5.6352112e-07 -9.0957762e-24)
(0.0023390336 -5.6463191e-07 6.3479458e-17)
(0.0023249246 -5.621985e-07 6.4204143e-17)
(0.0023042935 -5.6442557e-07 3.4739157e-23)
(0.0022729707 -5.5960345e-07 -8.8985199e-24)
(0.0022349444 -5.6493048e-07 1.6970365e-23)
(0.0021823391 -5.5627983e-07 -8.999464e-24)
(0.002124147 -5.6743564e-07 -1.9428445e-23)
(0.0020443718 -5.5000979e-07 3.662874e-23)
(0.0019627866 -5.7240937e-07 -2.8650788e-23)
(0.0018465058 -5.3458164e-07 3.766583e-23)
(0.0017374089 -5.7677577e-07 -6.797735e-23)
(0.0015677777 -4.9464827e-07 3.819621e-23)
(0.0014250471 -5.7084088e-07 9.0783921e-24)
(0.0011688654 -3.9213011e-07 -2.2296603e-25)
(0.00097968404 -4.9903119e-07 -2.342243e-25)
(0.00055206017 3.6982303e-06 -4.3443841e-21)
(0.00022823146 1.2633353e-05 -3.0862723e-19)
(0.00028527996 3.2901152e-05 -4.7679811e-20)
(0.00030266797 5.2461803e-05 9.722075e-20)
(0.00044446802 0.00010096551 -8.061752e-20)
(0.00056733343 0.00015887736 4.8457849e-19)
(0.00074500965 0.00024649859 3.6177983e-19)
(0.00091905444 0.00035042823 -7.3313162e-19)
(0.0011311196 0.00048666815 1.5923226e-19)
(0.0013519023 0.00064641897 3.0635284e-19)
(0.0016034679 0.00084124489 2.9193049e-19)
(0.0018773478 0.0010696828 -9.9912049e-19)
(0.0022043819 0.0013481403 -4.506504e-19)
(0.0025738367 0.0016669646 -1.0083927e-19)
(0.0029696067 0.0020144583 -1.1235217e-18)
(0.0033944619 0.0023901001 -1.0664827e-18)
(0.0038428346 0.0027867361 6.0150852e-19)
(0.0043175506 0.0032023828 -1.0665337e-18)
(0.0048075201 0.0036243704 -1.7649094e-20)
(0.0053166684 0.0040498995 1.3508141e-18)
(0.0058078464 0.0044466165 -6.6034627e-19)
(0.0062553533 0.0048037822 2.1476199e-19)
(0.006645584 0.0051251562 5.6312666e-19)
(0.0070298918 0.0054614474 -1.280474e-18)
(0.0074391694 0.0058269586 -1.0569338e-19)
(0.0078467202 0.0062063057 -8.0997968e-19)
(0.0082877665 0.0066291284 -9.1051018e-20)
(0.0087629234 0.0070986846 -1.8474683e-20)
(0.0093161546 0.0076517529 2.9521535e-19)
(0.0099567584 0.0083025623 3.685172e-19)
(0.010850154 0.0091753036 6.9768288e-20)
(0.012086696 0.01026744 -2.3299829e-19)
(0.013574083 0.011449151 -1.7807886e-20)
(0.015384373 0.0127283 -7.7990416e-20)
(0.017576381 0.014080178 2.3312107e-19)
(0.020361605 0.015549761 -1.0827786e-19)
(0.023796628 0.016999781 -2.4187815e-19)
(0.028280745 0.018390988 -9.1450684e-19)
(0.033333601 0.01899974 9.8503162e-19)
(0.038872372 0.018312731 -6.4498785e-19)
(0.041068257 0.014602298 7.1660244e-19)
(0.038220383 0.009350436 -1.7412391e-20)
(0.030753912 0.0046716821 3.0897511e-19)
(0.024147051 0.0019103725 1.3051409e-19)
(0.015797203 0.00045688272 -1.3897986e-20)
(0.014224294 -5.7088049e-06 7.0216352e-22)
(0.0075722032 -3.6082051e-05 2.1568593e-21)
(0.048331281 0.00018628796 2.3953903e-20)
(0.040602645 -5.3735895e-05 2.7633462e-21)
(0.057829986 -0.0015888618 8.1617636e-20)
(0.046751531 -0.003595378 2.6166193e-19)
(0.03884829 -0.0057460219 -7.4019638e-20)
(0.015821329 -0.0037210746 -1.6815441e-18)
(-0.0029195455 0.0011868067 -2.0688357e-19)
(-0.016574021 0.0079791355 6.3403294e-19)
(-0.016976913 0.0098144135 8.5028775e-19)
(-0.015695858 0.010339216 -3.6402555e-19)
(-0.013715441 0.0099163038 -1.0880862e-18)
(-0.011987145 0.0092648455 -1.7582981e-18)
(-0.010723239 0.0086921674 -2.7436975e-18)
(-0.0097989392 0.0082007797 -1.879804e-19)
(-0.0090797896 0.0077424911 4.9228278e-19)
(-0.0084787339 0.007275641 -1.1358463e-18)
(-0.0079456919 0.0067798426 -1.7254054e-18)
(-0.0075464088 0.0063444343 -1.6666894e-19)
(-0.0072853756 0.0060306092 -8.9096954e-19)
(-0.0070877923 0.0057842435 -5.4333873e-19)
(-0.0069644768 0.0056110783 -1.500525e-18)
(-0.00692212 0.0055139946 8.6652798e-19)
(-0.0069638465 0.0054936408 -1.3989613e-18)
(-0.0071061453 0.0055602964 -3.562184e-19)
(-0.007343337 0.0057095561 -5.8140334e-19)
(-0.0076775611 0.005941114 -3.8161535e-19)
(-0.0080638092 0.0062195792 2.2441756e-18)
(-0.0084476557 0.0064796185 2.4052071e-18)
(-0.0088444276 0.0067096393 -1.0058156e-18)
(-0.0092626902 0.0069082501 1.7327566e-18)
(-0.0096899517 0.0070588468 2.9385205e-19)
(-0.010115019 0.0071459239 2.9632319e-19)
(-0.010522698 0.0071515413 6.1807176e-19)
(-0.010894317 0.0070565881 -7.0454058e-19)
(-0.011218675 0.0068478191 -2.9911636e-19)
(-0.011516146 0.0065373753 1.4708265e-18)
(-0.011853626 0.006178587 -8.1079194e-19)
(-0.012201786 0.0057779527 -4.3748687e-19)
(-0.012511835 0.0053134964 -5.6553685e-20)
(-0.012760182 0.0047805584 1.6421108e-19)
(-0.012962772 0.004194059 -3.4407205e-19)
(-0.013046938 0.0035412886 -8.5262211e-19)
(-0.013126903 0.0028658535 -7.6160662e-20)
(-0.013016737 0.0021399561 8.4566019e-20)
(-0.013167192 0.0014463836 -1.705897e-19)
(-0.013114838 0.00072760144 -1.1510252e-20)
(-0.015461362 0.00013811643 -1.0725925e-21)
(-0.0188225 3.218155e-05 1.8058917e-23)
(-0.020604327 2.2449289e-05 -5.9084019e-23)
(-0.022185353 1.6616202e-05 6.7974969e-23)
(-0.023206662 1.2705238e-05 -1.771996e-23)
(-0.024075478 9.5390899e-06 -4.7168137e-23)
(-0.024662124 7.2271969e-06 3.5852373e-23)
(-0.025126824 5.1969936e-06 -2.4171805e-24)
(-0.025421232 3.5936499e-06 -2.2544523e-24)
(-0.025616753 2.1606226e-06 -7.2162295e-24)
(-0.025697945 9.7090637e-07 3.2447251e-24)
(-0.025699485 -1.1937393e-07 -6.3975333e-24)
(-0.025615048 -1.0860097e-06 3.8491232e-23)
(-0.025462126 -1.970552e-06 -4.0826927e-23)
(-0.025241949 -2.7573344e-06 -4.8565567e-24)
(-0.024965036 -3.4749593e-06 3.3072913e-23)
(-0.02463438 -4.1190151e-06 -1.074641e-23)
(-0.024256981 -4.7042163e-06 6.2882908e-24)
(-0.023836316 -5.2301736e-06 -1.5461752e-23)
(-0.023377526 -5.7051566e-06 5.1178356e-24)
(-0.022884073 -6.1294484e-06 7.8934722e-24)
(-0.022360128 -6.5081504e-06 -1.5666464e-24)
(-0.021808962 -6.8427059e-06 -1.0667629e-23)
(-0.021234118 -7.1361941e-06 -1.2607271e-25)
(-0.020638605 -7.3910718e-06 1.2924863e-23)
(-0.020025406 -7.6102558e-06 -1.2624551e-23)
(-0.01939718 -7.7961059e-06 1.0908524e-23)
(-0.018756477 -7.9516279e-06 -6.5959771e-24)
(-0.018105471 -8.0792792e-06 3.3172907e-24)
(-0.017446347 -8.1768103e-06 -7.6141009e-25)
(-0.01678162 -8.2454001e-06 -9.0067893e-25)
(-0.016113238 -8.2948003e-06 -7.0028778e-26)
(-0.015442279 -8.3252767e-06 -3.013564e-25)
(-0.014770607 -8.3338749e-06 -9.0387182e-25)
(-0.014099706 -8.325176e-06 5.6066438e-25)
(-0.013430795 -8.2998855e-06 1.4066866e-24)
(-0.01276519 -8.2591812e-06 -2.1101338e-24)
(-0.012103975 -8.2059682e-06 4.0185205e-27)
(-0.011448012 -8.1399808e-06 -6.8936051e-25)
(-0.010798329 -8.0624749e-06 1.6416324e-24)
(-0.010155734 -7.9760257e-06 2.1118106e-24)
(-0.0095207493 -7.8813274e-06 -7.6450385e-25)
(-0.0088940831 -7.778259e-06 -2.8787362e-24)
(-0.0082763264 -7.6687134e-06 7.286438e-24)
(-0.0076679028 -7.5535812e-06 -6.1522684e-24)
(-0.0070691943 -7.4337836e-06 3.0166911e-24)
(-0.0064805353 -7.3085624e-06 -1.3738792e-24)
(-0.0059023194 -7.1808365e-06 9.9889682e-25)
(-0.0053346339 -7.0502947e-06 -6.1838274e-26)
(-0.0047777721 -6.9168886e-06 -7.4778576e-26)
(-0.0042317795 -6.7830138e-06 2.2705886e-25)
(-0.0036968019 -6.6467314e-06 9.3380048e-25)
(-0.0031729778 -6.5071665e-06 -9.1233074e-25)
(-0.0026607203 -6.358371e-06 1.0098281e-25)
(-0.0021611243 -6.1980394e-06 -4.5108075e-25)
(-0.001674807 -6.0303239e-06 -4.7952401e-25)
(-0.0012022432 -5.8592945e-06 1.4811466e-24)
(-0.00074349379 -5.6886978e-06 -8.9196518e-26)
(-0.00029834051 -5.5214299e-06 -7.1396548e-26)
(0.00013353088 -5.358543e-06 -3.9333955e-24)
(0.00055248512 -5.200399e-06 5.5481245e-24)
(0.00095897113 -5.045985e-06 -2.2960339e-24)
(0.0013531551 -4.8926197e-06 5.8779502e-24)
(0.0017349883 -4.7396405e-06 -1.2662299e-23)
(0.0021046415 -4.5882278e-06 1.65212e-23)
(0.0024621766 -4.4368304e-06 -1.3094978e-23)
(0.0028075733 -4.2861709e-06 -2.6469877e-24)
(0.0031409602 -4.1359719e-06 1.8079674e-24)
(0.0034622508 -3.9853037e-06 1.2630441e-23)
(0.003771516 -3.8356081e-06 -7.2728731e-24)
(0.0040688317 -3.6855969e-06 5.2183832e-24)
(0.0043540458 -3.5347359e-06 6.9636887e-24)
(0.0046272228 -3.3844034e-06 -1.0333003e-24)
(0.0048883663 -3.2331315e-06 7.2341814e-24)
(0.0051373085 -3.0805621e-06 -2.0019152e-23)
(0.0053740307 -2.9276566e-06 1.8051265e-23)
(0.0055985041 -2.7732052e-06 -3.6691721e-23)
(0.0058104735 -2.61644e-06 7.1987086e-24)
(0.0060098781 -2.4585816e-06 2.0867753e-24)
(0.0061965602 -2.2979145e-06 2.1409718e-24)
(0.0063702472 -2.1340984e-06 7.6093304e-24)
(0.0065306835 -1.9674325e-06 -3.1692605e-24)
(0.0066777176 -1.7969437e-06 7.8326318e-24)
(0.0068107899 -1.6211317e-06 2.40697e-24)
(0.0069297361 -1.4412202e-06 -3.1974251e-24)
(0.0070338914 -1.2543122e-06 8.1607208e-24)
(0.0071230107 -1.0610263e-06 2.5556456e-24)
(0.0071960351 -8.5893839e-07 2.6053579e-24)
(0.0072529864 -6.4877432e-07 -4.1906596e-23)
(0.0072920047 -4.2592459e-07 5.5175e-23)
(0.007313691 -1.9435874e-07 -5.0610443e-23)
(0.0073149217 5.1709332e-08 2.7349066e-23)
(0.007298104 3.0781551e-07 2.6545753e-24)
(0.007256925 5.9620866e-07 8.8987672e-24)
(0.0071958261 9.0111813e-07 2.8240244e-24)
(0.0071030034 1.254091e-06 -2.3134958e-23)
(0.006989411 1.6157511e-06 -2.7813364e-23)
(0.0068328413 2.0488237e-06 3.3216679e-23)
(0.0066581892 2.4803755e-06 9.3044904e-24)
(0.0064204591 3.0328554e-06 -3.6696703e-24)
(0.0061746097 3.5549368e-06 -2.2247635e-23)
(0.0058281538 4.3067372e-06 2.6919203e-24)
(0.0054978692 4.9717068e-06 2.7549967e-24)
(0.0049931286 6.0870884e-06 -1.8703113e-23)
(0.0045584096 7.0244359e-06 2.6223713e-24)
(0.0037977676 8.8847432e-06 -4.4178786e-24)
(0.003216701 1.0700774e-05 8.0845661e-23)
(0.0019494334 2.7585437e-05 2.0947088e-22)
(0.00098817927 5.8105028e-05 -1.148611e-20)
(0.0011351072 0.00012398357 -6.1688736e-19)
(0.0011863598 0.00019185078 2.7522116e-19)
(0.0015996348 0.00034494641 -4.2293451e-19)
(0.0019649869 0.00052785504 -7.4315168e-19)
(0.0024898747 0.0007986973 -1.3685807e-18)
(0.0030082471 0.0011193507 1.1641348e-18)
(0.0036374952 0.0015360315 1.2395478e-19)
(0.0042948002 0.0020237657 -1.4451946e-18)
(0.005042508 0.0026161641 -2.6734118e-19)
(0.0058580126 0.0033096563 -8.303014e-19)
(0.0068288144 0.004151751 1.789773e-18)
(0.0079242498 0.005113999 -4.2588829e-19)
(0.0090986661 0.0061621304 1.0851343e-18)
(0.010359261 0.0072941471 9.9757038e-19)
(0.011690288 0.0084889468 -1.2767267e-18)
(0.013099089 0.0097401229 1.724238e-18)
(0.014554724 0.011010493 -5.4518092e-19)
(0.016066625 0.01229073 -1.8565224e-18)
(0.017528599 0.013485941 2.7402924e-20)
(0.018866164 0.014565075 -5.5619192e-19)
(0.020040671 0.015540286 -2.339305e-19)
(0.021196084 0.016559774 -2.7874501e-19)
(0.02241956 0.017664671 2.0819365e-19)
(0.023640142 0.018812806 -6.1031848e-19)
(0.02495562 0.020090037 8.9834459e-20)
(0.026371669 0.021508017 3.2729572e-19)
(0.028012569 0.023174407 -7.7385366e-19)
(0.029914159 0.025135365 -2.4891335e-19)
(0.032546006 0.02775227 -2.3888018e-19)
(0.036167687 0.031012026 3.854173e-20)
(0.040538229 0.03453948 6.2813431e-20)
(0.045859073 0.038351185 7.872851e-20)
(0.05230949 0.042373453 1.7165781e-19)
(0.06048286 0.046724777 -8.6014874e-19)
(0.070566379 0.051000269 1.5571251e-18)
(0.083640031 0.05504467 1.8285582e-18)
(0.098407625 0.056754515 -2.692804e-19)
(0.11445024 0.054580961 1.1511148e-18)
(0.12130647 0.043640709 2.8177047e-18)
(0.11408207 0.028214366 2.3101934e-18)
(0.093585454 0.014361502 3.0574061e-19)
(0.074521746 0.0060095373 -5.2525319e-19)
(0.050558673 0.001533874 -2.2846377e-20)
(0.044938043 5.1942524e-05 -6.3415486e-21)
(0.026095358 -0.00012617447 2.2719832e-20)
(0.082807102 0.00024265298 3.7054607e-21)
(0.07144511 -0.00015334915 1.5045129e-21)
(0.097735619 -0.0027048009 7.805189e-21)
(0.080724703 -0.0061089671 -4.4173104e-19)
(0.067266112 -0.0097668395 -3.6604173e-19)
(0.029641356 -0.0067419105 1.594662e-18)
(-0.0024482414 0.0013382324 8.6067705e-19)
(-0.026655217 0.012948438 2.8745485e-19)
(-0.028170605 0.016292215 4.5702435e-19)
(-0.02623176 0.017263943 2.3674937e-19)
(-0.023031636 0.016630186 -2.0407908e-19)
(-0.020193829 0.01558902 1.1127432e-18)
(-0.018100562 0.014658074 2.0783839e-18)
(-0.016563118 0.013850987 -1.5350616e-19)
(-0.015364854 0.013093003 -1.6901842e-18)
(-0.014363729 0.012317638 -9.9956808e-20)
(-0.013478313 0.011493804 9.0447168e-19)
(-0.012815171 0.010768976 1.8394513e-18)
(-0.012382124 0.01024592 6.9171159e-19)
(-0.012057294 0.0098370689 4.7545476e-20)
(-0.011857418 0.0095516003 1.3171628e-18)
(-0.011793754 0.0093943248 -9.8984552e-19)
(-0.011871602 0.009366503 -1.5447501e-18)
(-0.012117718 0.009484613 7.8334097e-19)
(-0.012522449 0.0097411014 2.7920477e-19)
(-0.013087819 0.010133926 2.4025184e-19)
(-0.013739267 0.010603871 -1.780574e-18)
(-0.014387826 0.011042997 -1.0152722e-18)
(-0.015057684 0.011430738 9.3687671e-19)
(-0.01576288 0.011764143 2.1213871e-19)
(-0.016483109 0.01201558 8.4910037e-19)
(-0.01719984 0.01215909 -1.7558943e-19)
(-0.017888304 0.012164887 1.0847374e-18)
(-0.01851863 0.012001676 7.4163776e-19)
(-0.019073879 0.011648312 -7.1412744e-19)
(-0.019588327 0.011125305 1.2047065e-19)
(-0.020168626 0.01051858 -4.9900329e-19)
(-0.020767178 0.0098393859 -7.8719387e-19)
(-0.021304861 0.0090520852 4.4222729e-19)
(-0.021743557 0.0081493812 -1.4939534e-18)
(-0.0221074 0.0071545234 7.3287007e-19)
(-0.022284538 0.0060491334 5.870655e-19)
(-0.022453884 0.004901231 1.5953179e-19)
(-0.022336483 0.0036716853 2.2280561e-19)
(-0.022643822 0.0024886226 -1.2470392e-19)
(-0.022720608 0.0012789927 1.2801072e-19)
(-0.026619213 0.00028536172 -7.4524096e-21)
(-0.032087929 9.7035429e-05 7.1754313e-23)
(-0.035043555 6.6501947e-05 -1.9973882e-23)
(-0.037625917 4.9524716e-05 -3.396219e-23)
(-0.039305847 3.7121818e-05 -1.9580093e-24)
(-0.040718198 2.7801241e-05 8.1533502e-24)
(-0.041672432 2.0547159e-05 3.8665391e-23)
(-0.042418312 1.4504752e-05 -7.0004059e-23)
(-0.042885738 9.5350411e-06 4.9895453e-23)
(-0.043186479 5.2402579e-06 2.0353874e-23)
(-0.04329925 1.5893745e-06 -2.7644104e-23)
(-0.043278612 -1.6903634e-06 -1.4213138e-23)
(-0.043115794 -4.6350983e-06 1.8778115e-23)
(-0.042838756 -7.2953069e-06 -1.543878e-24)
(-0.042450377 -9.6750229e-06 2.5521954e-23)
(-0.041967602 -1.1827822e-05 -3.0538606e-23)
(-0.041395778 -1.3763167e-05 7.4905228e-24)
(-0.040746309 -1.5511343e-05 -3.3462697e-24)
(-0.040025144 -1.7081569e-05 -7.7602285e-25)
(-0.039240732 -1.8492367e-05 2.5796479e-23)
(-0.038398911 -1.9750158e-05 -3.3662837e-23)
(-0.037506569 -2.0867163e-05 3.251395e-23)
(-0.036569178 -2.1849967e-05 -1.2446187e-23)
(-0.035592608 -2.2707061e-05 -1.0669072e-23)
(-0.034581876 -2.3447178e-05 6.6318171e-24)
(-0.033541927 -2.4078455e-05 -6.7419466e-25)
(-0.032477188 -2.4608581e-05 -8.8289896e-25)
(-0.031391897 -2.5047365e-05 -2.8154704e-24)
(-0.030289664 -2.5401865e-05 4.0314118e-24)
(-0.02917412 -2.5665279e-05 2.0211504e-24)
(-0.028049441 -2.5841914e-05 -1.9132103e-24)
(-0.026918867 -2.5960375e-05 -5.4791773e-26)
(-0.025784192 -2.6022042e-05 -3.5017678e-25)
(-0.024648512 -2.6018643e-05 -1.0838519e-24)
(-0.02351429 -2.5962783e-05 2.8394143e-24)
(-0.022383566 -2.5857769e-05 -1.8443488e-24)
(-0.02125851 -2.5707299e-05 3.196072e-25)
(-0.020140938 -2.5518905e-05 -3.9190549e-24)
(-0.019032291 -2.5292792e-05 3.027615e-24)
(-0.017934263 -2.5032758e-05 -2.2499593e-24)
(-0.016848207 -2.4746337e-05 2.7579422e-25)
(-0.015775 -2.4435684e-05 9.9633477e-25)
(-0.014715814 -2.4100527e-05 1.5910647e-24)
(-0.01367164 -2.374622e-05 -2.8714065e-24)
(-0.012643179 -2.3376e-05 -3.368144e-24)
(-0.011631077 -2.2992062e-05 1.5014684e-24)
(-0.010635892 -2.2592845e-05 2.9358898e-24)
(-0.0096582699 -2.2186312e-05 -2.2638975e-24)
(-0.0086983788 -2.1771835e-05 -1.181724e-24)
(-0.0077566971 -2.1349634e-05 2.0378562e-24)
(-0.0068333173 -2.0925927e-05 -1.2449305e-24)
(-0.0059285048 -2.0495397e-05 1.9706188e-25)
(-0.005042522 -2.005431e-05 5.0055328e-25)
(-0.0041761113 -1.9585259e-05 5.2219056e-25)
(-0.0033310937 -1.9082143e-05 5.4021065e-25)
(-0.0025084736 -1.8557496e-05 3.5907481e-25)
(-0.0017090393 -1.8023656e-05 6.006736e-25)
(-0.00093286373 -1.7492139e-05 -1.5130531e-24)
(-0.00017958382 -1.6970852e-05 2.8709941e-24)
(0.00055129307 -1.6463345e-05 -1.5865111e-24)
(0.0012604476 -1.5971231e-05 -3.6441173e-24)
(0.0019486121 -1.5490726e-05 5.0944065e-24)
(0.0026160435 -1.5013568e-05 3.1605348e-24)
(0.0032626662 -1.45381e-05 -6.6403982e-24)
(0.0038887577 -1.4067237e-05 -6.9082928e-24)
(0.004494414 -1.3596915e-05 3.1684749e-24)
(0.0050796073 -1.3128934e-05 3.340834e-24)
(0.0056445369 -1.2662405e-05 1.1027681e-23)
(0.0061890655 -1.2194922e-05 -7.2288641e-24)
(0.0067133069 -1.1730241e-05 3.6103147e-24)
(0.0072173743 -1.1264656e-05 -7.5557703e-24)
(0.0077010237 -1.0796895e-05 -1.9144435e-23)
(0.0081643544 -1.0330473e-05 3.4637575e-24)
(0.008607361 -9.8613244e-06 3.5269858e-23)
(0.0090297705 -9.3882237e-06 -7.8459383e-24)
(0.0094315451 -8.9139599e-06 7.4799882e-24)
(0.0098126223 -8.4349235e-06 -2.3693154e-23)
(0.010172585 -7.9490791e-06 -8.4715653e-24)
(0.01051132 -7.4593523e-06 3.2097436e-25)
(0.010828554 -6.9611932e-06 3.2708258e-23)
(0.011123833 -6.45304e-06 -1.2129634e-23)
(0.011396726 -5.9361568e-06 1.7134426e-23)
(0.011646957 -5.4069012e-06 -2.1637792e-23)
(0.011873605 -4.8618963e-06 -2.2110727e-23)
(0.012076368 -4.3028626e-06 3.0689661e-23)
(0.012254142 -3.7234605e-06 3.1339209e-23)
(0.012406485 -3.1225845e-06 -9.0341898e-23)
(0.012531656 -2.4963766e-06 8.6311025e-23)
(0.012629611 -1.8419505e-06 -2.6880293e-23)
(0.012697329 -1.1524573e-06 -2.3421427e-23)
(0.012735651 -4.2939597e-07 1.8599557e-23)
(0.012739542 3.296555e-07 -9.6839675e-24)
(0.012712731 1.1327487e-06 -3.8684201e-23)
(0.012645076 2.017361e-06 1.8868762e-23)
(0.012543352 2.9794523e-06 4.8642433e-23)
(0.012388708 4.0522997e-06 1.9944204e-23)
(0.012198117 5.2074784e-06 -2.4781288e-23)
(0.011936249 6.5057213e-06 -7.5249642e-23)
(0.01164199 7.9123647e-06 1.9731063e-23)
(0.011243935 9.5313268e-06 -2.6445263e-23)
(0.010828267 1.1292419e-05 9.8504396e-23)
(0.010248245 1.3425231e-05 2.1425668e-23)
(0.009687577 1.5778058e-05 -2.6289209e-23)
(0.0088435525 1.8822735e-05 -3.155236e-23)
(0.0081018038 2.2319321e-05 -2.7633661e-23)
(0.0068323043 2.7237264e-05 2.1706077e-23)
(0.0058337897 3.405263e-05 -2.8466964e-23)
(0.003722386 6.9207795e-05 1.068885e-20)
(0.002118774 0.00012946949 8.1793624e-20)
(0.0023300338 0.00025301958 7.1824657e-19)
(0.0024134546 0.00038639275 -4.1763911e-19)
(0.0030898114 0.0006595207 1.8480362e-19)
(0.0036981391 0.00098500146 1.3234918e-18)
(0.0045681405 0.0014551419 2.100709e-19)
(0.0054335646 0.0020100144 -1.7098397e-18)
(0.0064816317 0.0027235786 -2.0625786e-19)
(0.0075801409 0.003556779 9.434122e-19)
(0.0088290144 0.0045637456 3.9338994e-19)
(0.010194208 0.0057400993 5.3404301e-19)
(0.011816762 0.0071620164 1.7453374e-18)
(0.013647216 0.0087830777 1.4064107e-18)
(0.015612059 0.010547563 -1.1837632e-19)
(0.017721889 0.012451251 -1.675249e-18)
(0.019951197 0.014459599 -5.1248835e-19)
(0.022310746 0.016561008 1.3172955e-18)
(0.024751005 0.018695004 1.4806289e-19)
(0.027284641 0.020844256 -3.1758739e-19)
(0.02973862 0.022854388 4.7986955e-19)
(0.031990812 0.024675321 -1.2104144e-19)
(0.033979175 0.02632868 -1.5997394e-19)
(0.035934574 0.028054415 1.6929828e-18)
(0.03799679 0.02991833 1.4730993e-19)
(0.040057464 0.031857671 5.1328798e-20)
(0.042272277 0.034009587 1.3001108e-18)
(0.04465566 0.036397234 -4.8395282e-19)
(0.04740862 0.039194856 5.5185532e-20)
(0.050601942 0.042485855 -1.5175216e-19)
(0.054996679 0.046851803 3.2385611e-19)
(0.06101401 0.05226194 3.9471316e-19)
(0.06828685 0.05811805 -5.9640332e-20)
(0.077135504 0.064432035 1.8887437e-19)
(0.08786153 0.071081646 9.4953526e-20)
(0.10140989 0.078231543 1.463659e-18)
(0.11810505 0.085221429 -1.3540175e-18)
(0.13960513 0.091717873 -3.2554116e-18)
(0.16388401 0.094351476 -1.3726891e-18)
(0.19002185 0.09051048 1.207926e-18)
(0.20180058 0.072626792 -1.9556215e-18)
(0.19135217 0.047488956 -5.4053344e-19)
(0.15951237 0.024701967 -1.9509973e-18)
(0.12854976 0.010595674 4.0004927e-19)
(0.08980492 0.0028912568 -1.2135806e-19)
(0.079068795 0.00021431648 -7.6326354e-22)
(0.048957062 -0.00023692387 -4.2612928e-20)
(0.11943772 0.0002500391 -6.2483591e-20)
(0.10563313 -0.0002987944 -3.7923864e-21)
(0.13900511 -0.0038737825 -8.2840869e-20)
(0.11718154 -0.0087302776 3.5130205e-19)
(0.09795585 -0.013967096 -1.1074644e-20)
(0.046352181 -0.010250056 -5.4882142e-19)
(0.00023342387 0.0008937494 4.7500619e-19)
(-0.035842062 0.017585301 -7.6144613e-19)
(-0.039245719 0.022697902 4.4858634e-19)
(-0.036834303 0.024204862 4.1109132e-19)
(-0.032506103 0.023426227 1.8632656e-18)
(-0.028598169 0.022037879 -2.0862179e-18)
(-0.025688147 0.020771807 7.8774799e-19)
(-0.023540532 0.019661119 -3.0414687e-19)
(-0.021863363 0.018609691 2.4787549e-19)
(-0.020462448 0.017529049 2.2897049e-18)
(-0.019226909 0.016380194 2.0664323e-19)
(-0.018301771 0.015367476 -3.7899319e-19)
(-0.017698421 0.014635821 4.199305e-20)
(-0.017250208 0.01406658 1.772832e-18)
(-0.016978757 0.013672082 -8.7824972e-19)
(-0.016899944 0.01345906 -2.4772859e-19)
(-0.017021344 0.013429563 1.5761217e-18)
(-0.017379373 0.013605667 -7.3258863e-19)
(-0.017960208 0.013976463 1.1707068e-18)
(-0.018764432 0.014536778 1.5246841e-18)
(-0.019688228 0.015203361 3.8001748e-19)
(-0.020609542 0.015826553 -5.6280802e-19)
(-0.021560318 0.016375742 -5.087155e-19)
(-0.022559849 0.016845859 -1.2600785e-18)
(-0.02358045 0.017198293 -1.6529334e-19)
(-0.024596366 0.017396554 -5.6757834e-19)
(-0.02557374 0.017399148 -1.2823805e-18)
(-0.026472575 0.017163132 -2.634663e-18)
(-0.027271711 0.016660309 -8.9543308e-19)
(-0.028019646 0.01591976 -4.0751297e-19)
(-0.02885877 0.015057351 7.9277795e-19)
(-0.029724214 0.01408947 1.0810663e-18)
(-0.030508439 0.012967678 2.0769546e-19)
(-0.031159856 0.011682454 9.143878e-19)
(-0.031708948 0.010264002 -6.0848241e-19)
(-0.032012342 0.0086906339 -7.087561e-19)
(-0.032304625 0.0070508184 -6.8102017e-20)
(-0.032239106 0.0053001491 -2.3381377e-19)
(-0.032755891 0.0036038979 2.2692817e-19)
(-0.033099142 0.0018918071 -1.933757e-19)
(-0.038533439 0.00048050129 1.1435102e-21)
(-0.045996922 0.00020016686 8.6764045e-24)
(-0.050111484 0.00013644643 -9.1167042e-24)
(-0.053649352 0.00010205418 8.3913697e-24)
(-0.055967082 7.5969355e-05 8.0155857e-24)
(-0.057891526 5.6997631e-05 -1.5311292e-23)
(-0.05919187 4.1799928e-05 -4.925358e-23)
(-0.060193455 2.9428861e-05 6.4125455e-23)
(-0.060812822 1.9060217e-05 -4.6492569e-23)
(-0.061196268 1.0227759e-05 5.9129016e-23)
(-0.061320232 2.6309056e-06 -1.365217e-23)
(-0.061256339 -4.1416074e-06 -7.4566609e-24)
(-0.060994959 -1.0262551e-05 -2.6367126e-23)
(-0.060573629 -1.5764314e-05 3.6937771e-23)
(-0.059997541 -2.0703674e-05 -3.5439773e-23)
(-0.059289585 -2.5160992e-05 1.9211641e-24)
(-0.058457751 -2.9176356e-05 -4.1663077e-24)
(-0.05751763 -3.2798124e-05 2.5564898e-23)
(-0.05647777 -3.6055385e-05 1.5318736e-23)
(-0.055349827 -3.8979596e-05 -2.5891219e-23)
(-0.054142065 -4.1588509e-05 -6.2335207e-24)
(-0.052864036 -4.3904374e-05 2.0615219e-23)
(-0.051523432 -4.594321e-05 -1.9153723e-23)
(-0.050128411 -4.772126e-05 2.180675e-23)
(-0.048686 -4.9257276e-05 -1.7562691e-23)
(-0.047203087 -5.0567569e-05 2.3174027e-24)
(-0.04568586 -5.1668178e-05 1.7037387e-24)
(-0.04414023 -5.2579207e-05 -3.6669914e-24)
(-0.04257123 -5.3315386e-05 5.2933507e-24)
(-0.040983929 -5.3862755e-05 -4.1759743e-24)
(-0.039384146 -5.4230051e-05 1.3710019e-24)