/*--------------------------------*- C++ -*----------------------------------*\
| =========                 |                                                 |
| \\      /  F ield         | OpenFOAM: The Open Source CFD Toolbox           |
|  \\    /   O peration     | Version:  2.4.0                                 |
|   \\  /    A nd           | Web:      www.OpenFOAM.org                      |
|    \\/     M anipulation  |                                                 |
\*---------------------------------------------------------------------------*/
FoamFile
{
    version     2.0;
    format      ascii;
    class       volScalarField;
    location    "15000";
    object      p;
}
// * * * * * * * * * * * * * * * * * * * * * * * * * * * * * * * * * * * * * //

dimensions      [0 2 -2 0 0 0 0];

internalField   nonuniform List<scalar> 
9742
(
0.13351976
0.13386446
0.13423484
0.13463138
0.13505442
0.13550418
0.13598081
0.13648433
0.13701469
0.13443996
0.134791
0.1351666
0.13556721
0.13599316
0.13644467
0.13692188
0.13742485
0.1379535
0.1353182
0.13567391
0.13605329
0.13645674
0.13688454
0.13733692
0.13781401
0.13831588
0.1388425
0.13615628
0.13651522
0.13689709
0.13730223
0.13773089
0.13818328
0.13865953
0.13915969
0.13968377
0.13695488
0.13731596
0.13769929
0.13810519
0.13853389
0.13898556
0.13946033
0.13995825
0.14047934
0.13771435
0.13807669
0.13846069
0.13886663
0.13929472
0.13974512
0.14021794
0.14071322
0.14123099
0.13843525
0.13879812
0.13918213
0.13958754
0.14001452
0.14046323
0.14093375
0.14142613
0.14194038
0.14247643
0.14303421
0.14361359
0.1442144
0.14483644
0.14547946
0.13911847
0.13948129
0.13986479
0.1402692
0.14069469
0.14114137
0.14160934
0.14209862
0.1426092
0.14314104
0.14369404
0.14426808
0.14486299
0.14547858
0.14611461
0.1397652
0.14012747
0.14051004
0.14091309
0.14133676
0.14178117
0.14224639
0.14273242
0.14323926
0.14376685
0.14431509
0.14488387
0.14547301
0.14608232
0.14671158
0.14037677
0.14073811
0.14111938
0.14152076
0.14194238
0.14238432
0.14284663
0.14332932
0.14383236
0.14435571
0.14489925
0.14546285
0.14604636
0.14664959
0.1472723
0.14095461
0.14131467
0.14169437
0.14209384
0.1425132
0.14295251
0.1434118
0.14389109
0.14439032
0.14490944
0.14544834
0.14600689
0.14658492
0.14718225
0.14779865
0.14150017
0.14185868
0.14223656
0.14263393
0.14305087
0.14348743
0.14394364
0.14441948
0.14491491
0.14542985
0.14596419
0.1465178
0.14709051
0.14768213
0.14829245
0.14892121
0.14956816
0.14201488
0.14237163
0.1427475
0.14314261
0.14355701
0.14399074
0.14444382
0.1449162
0.14540784
0.14591866
0.14644854
0.14699734
0.14756489
0.148151
0.14875546
0.14937801
0.15001841
0.15067636
0.15135155
0.15204367
0.15275237
0.15347729
0.14250017
0.14285497
0.1432287
0.14362143
0.14403321
0.14446406
0.14491397
0.14538291
0.1458708
0.14637757
0.14690309
0.14744721
0.14800976
0.14859056
0.14918937
0.14980598
0.1504401
0.15109146
0.15175976
0.15244467
0.15314587
0.15386299
0.15459566
0.15534351
0.15610613
0.15688311
0.15767403
0.15847846
0.15929594
0.16012603
0.16096826
0.14201083
0.14230788
0.14262338
0.14295744
0.14331016
0.14368163
0.14407189
0.14448099
0.14490893
0.14535568
0.1458212
0.1463054
0.1468082
0.14732947
0.14786905
0.14842677
0.14900244
0.14959584
0.15020673
0.15083484
0.15147991
0.15214162
0.15281968
0.15351373
0.15422343
0.15494843
0.15568834
0.15644276
0.1572113
0.15799354
0.15878905
0.1595974
0.16041814
0.16125081
0.14244723
0.14274246
0.14305603
0.14338805
0.1437386
0.14410772
0.14449547
0.14490186
0.14532687
0.14577047
0.14623261
0.14671319
0.14721211
0.14772924
0.14826442
0.14881748
0.14938822
0.14997641
0.15058182
0.15120419
0.15184325
0.15249868
0.1531702
0.15385745
0.15456011
0.15527781
0.15601017
0.15675682
0.15751736
0.15829137
0.15907844
0.15987813
0.16069001
0.16151364
0.14285863
0.1431519
0.14346345
0.14379334
0.14414163
0.14450837
0.14489357
0.14529723
0.14571933
0.14615982
0.14661863
0.14709566
0.1475908
0.14810392
0.14863484
0.1491834
0.14974939
0.15033258
0.15093275
0.15154963
0.15218294
0.15283239
0.15349767
0.15417846
0.15487442
0.15558518
0.15631039
0.15704966
0.15780261
0.15856882
0.15934789
0.16013939
0.16094289
0.16175794
0.14324622
0.14353745
0.14384689
0.14417459
0.14452059
0.14488491
0.14526754
0.14566849
0.1460877
0.14652512
0.14698066
0.14745423
0.1479457
0.14845492
0.14898174
0.14952596
0.15008738
0.15066578
0.15126093
0.15187255
0.15250038
0.15314413
0.15380348
0.15447811
0.15516769
0.15587187
0.15659029
0.15732256
0.15806831
0.15882713
0.15959861
0.16038235
0.16117791
0.16198487
0.14361117
0.1439003
0.14420759
0.14453307
0.14487674
0.14523863
0.14561871
0.14601696
0.14643332
0.14686772
0.14732007
0.14779027
0.14827817
0.14878363
0.14930647
0.14984652
0.15040356
0.15097737
0.15156771
0.15217431
0.15279691
0.15343521
0.15408892
0.1547577
0.15544122
0.15613915
0.15685111
0.15757674
0.15831566
0.15906747
0.15983178
0.16060816
0.16139621
0.16219548
0.16300556
0.16382599
0.16465632
0.1654961
0.16634488
0.16720219
0.16806755
0.14395463
0.14424162
0.14454673
0.14486996
0.14521131
0.14557077
0.14594832
0.1463439
0.14675746
0.14718891
0.14763815
0.14810507
0.14858951
0.14909133
0.14961036
0.15014639
0.15069922
0.15126863
0.15185437
0.15245618
0.15307379
0.15370691
0.15435523
0.15501844
0.15569621
0.15638819
0.15709403
0.15781336
0.1585458
0.15929097
0.16004847
0.16081789
0.16159882
0.16239083
0.16319349
0.16400638
0.16482904
0.16566102
0.16650188
0.16735115
0.16820838
0.14353101
0.14376165
0.14401084
0.14427771
0.14456254
0.14486546
0.14518644
0.14552548
0.14588254
0.14625758
0.14665054
0.14706136
0.14748992
0.14793614
0.14839987
0.14888097
0.14937928
0.14989463
0.1504268
0.1509756
0.15154079
0.15212214
0.15271937
0.15333222
0.1539604
0.1546036
0.15526151
0.15593381
0.15662014
0.15732017
0.15803352
0.15875982
0.15949869
0.16024974
0.16101256
0.16178675
0.16257188
0.16336753
0.16417328
0.16498867
0.16581328
0.16664665
0.16748832
0.16833785
0.14384127
0.14406977
0.14431676
0.14458147
0.14486415
0.14516488
0.14548363
0.14582037
0.14617505
0.14654763
0.14693803
0.14734616
0.14777193
0.1482152
0.14867585
0.14915373
0.14964866
0.15016046
0.15068893
0.15123387
0.15179503
0.15237217
0.15296503
0.15357334
0.15419681
0.15483514
0.15548801
0.1561551
0.15683608
0.15753058
0.15823826
0.15895874
0.15969164
0.16043657
0.16119314
0.16196094
0.16273956
0.16352857
0.16432756
0.16513608
0.1659537
0.16677998
0.16761447
0.16845672
0.14413323
0.14435959
0.14460439
0.14486694
0.14514748
0.14544604
0.14576258
0.14609706
0.14644941
0.14681958
0.14720747
0.14761299
0.14803603
0.14847645
0.14893413
0.14940889
0.14990056
0.15040896
0.15093389
0.15147511
0.15203241
0.15260554
0.15319423
0.15379822
0.1544172
0.15505089
0.15569897
0.15636112
0.157037
0.15772626
0.15842856
0.15914351
0.15987075
0.16060989
0.16136053
0.16212228
0.16289473
0.16367746
0.16447005
0.16527207
0.16608308
0.16690266
0.16773035
0.16856572
0.16940831
0.17025766
0.17111332
0.17197484
0.17284175
0.1737136
0.17458991
0.17547023
0.17635409
0.17724102
0.17813057
0.17902226
0.17991565
0.18081025
0.18170562
0.1826013
0.18349682
0.18439173
0.18528559
0.18617793
0.18706831
0.18795628
0.18884141
0.18972324
0.19060135
0.19147529
0.19234465
0.19320898
0.19406787
0.19492089
0.19576762
0.19660765
0.14440785
0.14463207
0.1448747
0.14513512
0.14541353
0.14570996
0.14602432
0.14635657
0.14670664
0.14707445
0.1474599
0.14786289
0.14828328
0.14872096
0.14917576
0.14964752
0.15013606
0.1506412
0.15116272
0.1517004
0.15225401
0.15282331
0.15340802
0.15400788
0.1546226
0.15525187
0.1558954
0.15655285
0.15722389
0.15790818
0.15860537
0.15931508
0.16003695
0.1607706
0.16151563
0.16227166
0.16303826
0.16381504
0.16460158
0.16539744
0.16620221
0.16701544
0.16783671
0.16866557
0.16950156
0.17034426
0.17119319
0.17204792
0.17290798
0.17377291
0.17464227
0.17551558
0.17639239
0.17727224
0.17815467
0.17903921
0.17992542
0.18081282
0.18170097
0.18258941
0.18347769
0.18436534
0.18525193
0.186137
0.18702012
0.18790082
0.18877869
0.18965327
0.19052413
0.19139085
0.19225298
0.19311011
0.1939618
0.19480765
0.19564723
0.19648013
0.14466603
0.14488814
0.14512862
0.14538695
0.14566328
0.1459576
0.14626984
0.14659992
0.14694776
0.14731327
0.14769635
0.14809688
0.14851472
0.14894974
0.14940177
0.14987064
0.15035618
0.15085819
0.15137645
0.15191074
0.15246083
0.15302647
0.15360739
0.15420332
0.15481397
0.15543905
0.15607824
0.15673123
0.15739768
0.15807725
0.15876959
0.15947434
0.16019112
0.16091957
0.16165928
0.16240988
0.16317096
0.1639421
0.16472291
0.16551295
0.1663118
0.16711904
0.16793423
0.16875693
0.1695867
0.17042309
0.17126567
0.17211397
0.17296755
0.17382596
0.17468873
0.17555542
0.17642557
0.17729873
0.17817442
0.17905221
0.17993163
0.18081224
0.18169357
0.18257517
0.1834566
0.1843374
0.18521712
0.18609533
0.18697158
0.18784543
0.18871643
0.18958416
0.19044819
0.19130807
0.19216338
0.19301371
0.19385862
0.19469769
0.19553052
0.19635668
0.14490867
0.14512869
0.14536708
0.14562335
0.14589764
0.1461899
0.14650006
0.14682802
0.1471737
0.14753699
0.14791777
0.14831592
0.1487313
0.14916375
0.14961312
0.15007922
0.15056188
0.15106089
0.15157603
0.15210708
0.15265381
0.15321595
0.15379326
0.15438545
0.15499223
0.15561332
0.15624839
0.15689714
0.15755923
0.15823432
0.15892206
0.1596221
0.16033406
0.16105757
0.16179225
0.16253771
0.16329355
0.16405936
0.16483474
0.16561927
0.16641253
0.16721409
0.16802353
0.1688404
0.16966428
0.17049472
0.17133128
0.17217351
0.17302097
0.17387321
0.17472977
0.1755902
0.17645406
0.17732088
0.17819022
0.17906162
0.17993464
0.18080882
0.1816837
0.18255885
0.18343381
0.18430813
0.18518138
0.18605311
0.18692287
0.18779024
0.18865477
0.18951603
0.19037359
0.19122703
0.19207591
0.19291981
0.19375831
0.19459099
0.19541744
0.19623725
0.14513661
0.14535459
0.14559092
0.14584519
0.14611748
0.14640775
0.14671588
0.14704179
0.14738537
0.1477465
0.14812506
0.14852091
0.14893391
0.1493639
0.14981071
0.15027415
0.15075405
0.15125018
0.15176234
0.1522903
0.15283381
0.15339263
0.15396649
0.15455512
0.15515822
0.15577551
0.15640667
0.1570514
0.15770934
0.15838018
0.15906356
0.15975913
0.16046652
0.16118536
0.16191527
0.16265586
0.16340674
0.1641675
0.16493775
0.16571706
0.16650503
0.16730122
0.16810522
0.16891659
0.16973489
0.1705597
0.17139058
0.17222707
0.17306874
0.17391514
0.17476582
0.17562034
0.17647825
0.1773391
0.17820243
0.1790678
0.17993477
0.18080287
0.18167167
0.18254072
0.18340957
0.18427778
0.18514491
0.18601051
0.18687416
0.18773541
0.18859382
0.18944898
0.19030044
0.19114779
0.19199059
0.19282843
0.19366088
0.19448754
0.19530797
0.19612178
0.14535065
0.14556664
0.14580098
0.1460533
0.14632365
0.14661197
0.14691815
0.14724206
0.14758361
0.14794266
0.14831907
0.14871271
0.14912343
0.14955104
0.14999539
0.15045629
0.15093354
0.15142693
0.15193624
0.15246124
0.15300169
0.15355734
0.15412791
0.15471315
0.15531276
0.15592644
0.15655388
0.15719478
0.1578488
0.1585156
0.15919484
0.15988618
0.16058923
0.16130365
0.16202903
0.16276502
0.1635112
0.16426719
0.16503257
0.16580695
0.16658991
0.16738102
0.16817987
0.16898603
0.16979907
0.17061856
0.17144405
0.17227512
0.17311132
0.17395221
0.17479734
0.17564627
0.17649856
0.17735376
0.17821141
0.17907109
0.17993233
0.18079471
0.18165776
0.18252104
0.18338413
0.18424656
0.18510791
0.18596773
0.1868256
0.18768107
0.18853372
0.18938311
0.19022882
0.19107042
0.19190748
0.1927396
0.19356635
0.19438731
0.19520207
0.19601022
0.14555159
0.14576564
0.14599804
0.14624847
0.14651695
0.14680339
0.14710766
0.14742965
0.14776924
0.14812628
0.14850063
0.14889214
0.14930066
0.149726
0.150168
0.15062645
0.15110117
0.15159193
0.15209852
0.1526207
0.15315823
0.15371085
0.15427831
0.15486032
0.1554566
0.15606685
0.15669076
0.15732803
0.15797832
0.15864129
0.15931662
0.16000393
0.16070288
0.1614131
0.16213421
0.16286582
0.16360756
0.16435902
0.16511981
0.16588952
0.16666774
0.16745405
0.16824803
0.16904926
0.16985732
0.17067177
0.17149219
0.17231813
0.17314915
0.17398483
0.17482472
0.17566837
0.17651535
0.1773652
0.1782175
0.17907179
0.17992764
0.18078459
0.18164221
0.18250006
0.1833577
0.18421468
0.18507057
0.18592494
0.18677735
0.18762736
0.18847456
0.18931851
0.19015878
0.19099496
0.19182662
0.19265333
0.19347469
0.19429029
0.19509969
0.19590251
0.14574017
0.14595234
0.14618287
0.14643147
0.14669813
0.14698275
0.1472852
0.14760533
0.14794303
0.14829813
0.1486705
0.14905997
0.14946637
0.14988954
0.15032928
0.1507854
0.15125769
0.15174595
0.15224994
0.15276943
0.15330418
0.15385393
0.15441841
0.15499735
0.15559047
0.15619746
0.15681802
0.15745184
0.15809859
0.15875794
0.15942954
0.16011305
0.16080811
0.16151435
0.1622314
0.16295889
0.16369641
0.1644436
0.16520003
0.16596532
0.16673906
0.16752082
0.1683102
0.16910678
0.16991013
0.17071982
0.17153543
0.17235652
0.17318266
0.17401341
0.17484834
0.175687
0.17652896
0.17737378
0.17822101
0.17907022
0.17992096
0.1807728
0.18162529
0.182478
0.18333049
0.18418233
0.18503307
0.18588228
0.18672954
0.18757441
0.18841646
0.18925527
0.19009042
0.19092148
0.19174803
0.19256965
0.19338593
0.19419645
0.19500081
0.19579859
0.1459171
0.14612744
0.14635617
0.14660301
0.14686792
0.14715079
0.14745148
0.14776983
0.1481057
0.14845895
0.14882942
0.14921693
0.14962131
0.15004239
0.15047997
0.15093386
0.15140384
0.1518897
0.15239122
0.15290815
0.15344025
0.15398726
0.15454891
0.15512494
0.15571505
0.15631894
0.15693632
0.15756687
0.15821026
0.15886617
0.15953425
0.16021415
0.16090552
0.161608
0.16232121
0.16304478
0.16377832
0.16452145
0.16527377
0.16603488
0.16680437
0.16758184
0.16836687
0.16915904
0.16995794
0.17076313
0.1715742
0.17239071
0.17321223
0.17403833
0.17486857
0.17570252
0.17653974
0.17737979
0.17822224
0.17906664
0.17991257
0.18075957
0.18160723
0.18245508
0.18330271
0.18414968
0.18499556
0.18583991
0.1866823
0.18752231
0.18835951
0.18919348
0.19002378
0.19085001
0.19167174
0.19248856
0.19330004
0.19410579
0.19490538
0.19569841
0.14608304
0.14629164
0.14651863
0.14676378
0.14702701
0.1473082
0.14760719
0.14792383
0.14825796
0.14860943
0.14897807
0.14936371
0.14976616
0.15018524
0.15062076
0.15107252
0.15154029
0.15202387
0.15252303
0.15303752
0.1535671
0.1541115
0.15467047
0.15524372
0.15583098
0.15643193
0.15704629
0.15767374
0.15831394
0.15896659
0.15963132
0.16030781
0.16099569
0.1616946
0.16240418
0.16312404
0.16385381
0.16459311
0.16534153
0.16609869
0.16686417
0.16763757
0.16841848
0.16920649
0.17000118
0.17080212
0.17160889
0.17242107
0.17323822
0.17405992
0.17488574
0.17571524
0.17654798
0.17738353
0.17822146
0.17906133
0.1799027
0.18074514
0.18158822
0.1824315
0.18327454
0.18411692
0.18495821
0.18579796
0.18663576
0.18747119
0.1883038
0.18913319
0.18995893
0.1907806
0.19159778
0.19241006
0.19321703
0.19401826
0.19481336
0.19560192
0.14623866
0.14644557
0.1466709
0.14691442
0.14717605
0.14745563
0.147753
0.14806799
0.14840046
0.14875022
0.14911712
0.14950096
0.14990156
0.15031874
0.15075229
0.15120201
0.15166769
0.1521491
0.152646
0.15315817
0.15368535
0.15422728
0.15478369
0.15535431
0.15593886
0.15653702
0.15714852
0.15777302
0.15841021
0.15905975
0.15972133
0.16039457
0.16107914
0.16177468
0.16248082
0.16319717
0.16392338
0.16465905
0.16540378
0.1661572
0.16691888
0.16768844
0.16846546
0.16924954
0.17004024
0.17083716
0.17163988
0.17244796
0.17326099
0.17407854
0.17490017
0.17572546
0.17655397
0.17738527
0.17821893
0.17905452
0.17989159
0.18072973
0.18156848
0.18240744
0.18324615
0.18408419
0.18492114
0.18575656
0.18659003
0.18742112
0.18824942
0.18907449
0.18989591
0.19071328
0.19152617
0.19233418
0.19313687
0.19393386
0.19472472
0.19550905
0.14638456
0.14658986
0.1468136
0.14705557
0.14731566
0.14759369
0.14788951
0.14820294
0.14853381
0.14888195
0.14924717
0.1496293
0.15002814
0.1504435
0.15087518
0.15132296
0.15178663
0.15226597
0.15276074
0.1532707
0.1537956
0.15433517
0.15488916
0.15545728
0.15603925
0.15663477
0.15724355
0.15786526
0.15849958
0.1591462
0.15980477
0.16047496
0.1611564
0.16184874
0.16255161
0.16326465
0.16398748
0.16471972
0.16546097
0.16621084
0.16696894
0.16773487
0.16850821
0.16928856
0.1700755
0.17086862
0.1716675
0.17247172
0.17328085
0.17409447
0.17491215
0.17573347
0.17655798
0.17738527
0.1782149
0.17904644
0.17987945
0.18071352
0.1815482
0.18238306
0.18321769
0.18405164
0.18488449
0.18571582
0.1865452
0.1873722
0.18819642
0.18901741
0.18983477
0.19064808
0.19145693
0.19226089
0.19305956
0.19385254
0.1946394
0.19541975
0.14652132
0.14672507
0.1469473
0.14718779
0.14744641
0.14772298
0.14801732
0.14832925
0.1486586
0.14900518
0.14936881
0.14974931
0.15014647
0.1505601
0.15098999
0.15143593
0.15189769
0.15237506
0.1528678
0.15337566
0.15389839
0.15443573
0.15498741
0.15555316
0.15613269
0.15672571
0.1573319
0.15795097
0.15858258
0.15922643
0.15988216
0.16054944
0.16122791
0.16191723
0.16261702
0.16332692
0.16404656
0.16477554
0.1655135
0.16626003
0.16701474
0.16777722
0.16854709
0.16932392
0.17010731
0.17089684
0.17169209
0.17249266
0.17329811
0.17410802
0.17492196
0.17573952
0.17656026
0.17738376
0.17820958
0.17903729
0.17986648
0.1806967
0.18152753
0.18235854
0.1831893
0.18401939
0.18484838
0.18567584
0.18650136
0.18732451
0.18814487
0.18896202
0.18977554
0.19058502
0.19139005
0.1921902
0.19298508
0.19377427
0.19455736
0.19533396
0.1466495
0.14685178
0.14707256
0.14731165
0.14756887
0.14784404
0.14813697
0.14844747
0.14877537
0.14912048
0.1494826
0.14986154
0.1502571
0.15066908
0.15109727
0.15154145
0.15200141
0.1524769
0.15296771
0.15347357
0.15399425
0.15452947
0.15507897
0.15564246
0.15621968
0.15681031
0.15741407
0.15803063
0.15865968
0.15930089
0.15995393
0.16061846
0.16129413
0.16198058
0.16267746
0.16338439
0.16410101
0.16482692
0.16556176
0.16630513
0.16705663
0.16781587
0.16858244
0.16935595
0.17013598
0.17092211
0.17171395
0.17251106
0.17331303
0.17411943
0.17492985
0.17574386
0.17656104
0.17738095
0.17820318
0.17902728
0.17985285
0.18067944
0.18150663
0.182334
0.18316112
0.18398756
0.1848129
0.18563672
0.18645859
0.1872781
0.18809482
0.18890834
0.18971824
0.19052411
0.19132553
0.1921221
0.19291339
0.19369902
0.19447856
0.19525161
0.14676961
0.14697049
0.14718991
0.14742766
0.14768355
0.14795739
0.14824898
0.14855813
0.14888466
0.14922835
0.14958903
0.14996649
0.15036053
0.15077095
0.15119752
0.15164004
0.15209827
0.15257199
0.15306096
0.15356493
0.15408365
0.15461686
0.15516429
0.15572566
0.15630068
0.15688906
0.1574905
0.15810468
0.1587313
0.15937002
0.16002052
0.16068245
0.16135546
0.16203921
0.16273333
0.16343745
0.16415121
0.16487422
0.16560611
0.16634649
0.16709496
0.16785113
0.16861459
0.16938496
0.17016181
0.17094474
0.17173334
0.17252719
0.17332587
0.17412897
0.17493606
0.17574672
0.17656052
0.17737705
0.17819588
0.17901658
0.17983873
0.18066189
0.18148565
0.18230958
0.18313326
0.18395626
0.18477816
0.18559853
0.18641696
0.18723304
0.18804633
0.18885642
0.18966291
0.19046536
0.19126339
0.19205656
0.19284448
0.19362674
0.19440292
0.19517264
0.14688215
0.14708171
0.14729984
0.14753632
0.14779096
0.14806353
0.14835385
0.14866172
0.14898694
0.1493293
0.14968861
0.15006467
0.15045726
0.15086619
0.15129123
0.15173216
0.15218876
0.15266079
0.15314802
0.1536502
0.15416707
0.15469837
0.15524383
0.15580318
0.15637612
0.15696236
0.15756161
0.15817355
0.15879787
0.15943424
0.16008232
0.16074179
0.16141229
0.16209348
0.16278499
0.16348646
0.16419751
0.16491778
0.16564688
0.16638443
0.16713004
0.16788331
0.16864384
0.16941123
0.17018508
0.17096499
0.17175053
0.17254129
0.17333687
0.17413684
0.17494078
0.17574828
0.17655891
0.17737224
0.17818786
0.17900534
0.17982426
0.18064419
0.18146471
0.1822854
0.18310582
0.18392557
0.18474422
0.18556135
0.18637653
0.18718936
0.18799941
0.18880628
0.18960954
0.19040878
0.19120359
0.19199357
0.1927783
0.19355738
0.19433041
0.19509697
0.14698759
0.1471859
0.14740281
0.1476381
0.14789154
0.14816293
0.14845205
0.1487587
0.14908267
0.14942377
0.14978178
0.1501565
0.15054773
0.15095524
0.15137883
0.15181826
0.15227331
0.15274375
0.15322933
0.1537298
0.15424492
0.15477441
0.15531801
0.15587544
0.15644641
0.15703064
0.15762781
0.15823763
0.15885977
0.1594939
0.16013971
0.16079685
0.16146498
0.16214374
0.16283279
0.16353174
0.16424025
0.16495792
0.16568439
0.16641927
0.16716217
0.16791269
0.16867045
0.16943504
0.17020606
0.1709831
0.17176575
0.1725536
0.17334625
0.17414326
0.17494424
0.17574874
0.17655637
0.17736669
0.17817928
0.17899372
0.17980959
0.18062647
0.18144393
0.18226155
0.18307891
0.18389559
0.18471117
0.18552522
0.18633735
0.18714711
0.18795411
0.18875792
0.18955814
0.19035435
0.19114613
0.1919331
0.19271482
0.19349091
0.19426095
0.19502455
0.14708638
0.1472835
0.14749926
0.14773343
0.14798575
0.14825601
0.14854399
0.14884949
0.14917229
0.14951219
0.14986897
0.15024244
0.15063237
0.15103854
0.15146075
0.15189876
0.15235234
0.15282126
0.15330528
0.15380414
0.15431759
0.15484537
0.15538721
0.15594283
0.15651194
0.15709425
0.15768946
0.15829727
0.15891735
0.15954938
0.16019303
0.16084797
0.16151385
0.16219032
0.16287703
0.16357362
0.16427971
0.16499493
0.16571891
0.16645127
0.16719161
0.16793954
0.16869468
0.16945661
0.17022496
0.17099929
0.17177922
0.17256432
0.1733542
0.17414842
0.17494659
0.17574828
0.17655306
0.17736053
0.17817026
0.17898184
0.17979483
0.18060882
0.18142339
0.18223812
0.18305259
0.18386637
0.18467905
0.18549021
0.18629944
0.18710632
0.18791043
0.18871137
0.18950871
0.19030206
0.19109099
0.1918751
0.192654
0.19342726
0.19419449
0.19495528
0.14717892
0.14737493
0.14758961
0.14782272
0.14807399
0.14834318
0.1486301
0.14893451
0.1492562
0.14959497
0.14995059
0.15032286
0.15071156
0.15111647
0.15153737
0.15197403
0.15242623
0.15289371
0.15337625
0.15387359
0.15438547
0.15491163
0.1554518
0.1560057
0.15657305
0.15715355
0.15774691
0.15835281
0.15897094
0.15960098
0.16024259
0.16089545
0.16155921
0.16223352
0.16291803
0.16361237
0.16431618
0.16502909
0.16575072
0.16648068
0.16721861
0.16796409
0.16871675
0.16947619
0.170242
0.17101378
0.17179113
0.17257364
0.1733609
0.17415249
0.17494801
0.17574703
0.17654914
0.17735392
0.17816095
0.17896981
0.17978009
0.18059136
0.1814032
0.1822152
0.18302693
0.18383798
0.18464792
0.18545635
0.18626285
0.187067
0.18786839
0.18866661
0.18946125
0.19025189
0.19103813
0.19181956
0.19259577
0.19336637
0.19413095
0.1948891
0.14693224
0.14708858
0.14726561
0.14746058
0.14767425
0.14790637
0.14815664
0.14842484
0.14871075
0.14901413
0.14933478
0.14967248
0.15002701
0.15039815
0.15078569
0.1511894
0.15160907
0.15204446
0.15249533
0.15296146
0.1534426
0.15393849
0.15444889
0.15497352
0.15551211
0.15606439
0.15663007
0.15720886
0.15780046
0.15840457
0.15902085
0.15964901
0.1602887
0.16093959
0.16160135
0.16227361
0.16295604
0.16364826
0.16434991
0.16506063
0.16578004
0.16650775
0.16724339
0.16798657
0.16873689
0.16949396
0.17025738
0.17102675
0.17180167
0.17258173
0.17336651
0.17415562
0.17494863
0.17574514
0.17654472
0.17734696
0.17815144
0.17895774
0.17976546
0.18057415
0.18138342
0.18219284
0.18300199
0.18381046
0.18461782
0.18542367
0.18622759
0.18702917
0.18782799
0.18862365
0.18941573
0.19020382
0.19098751
0.19176641
0.1925401
0.19330819
0.19407026
0.19482592
0.14701541
0.1471706
0.14734682
0.14754081
0.14775354
0.14798473
0.14823408
0.14850134
0.1487863
0.14908872
0.14940839
0.14974508
0.15009857
0.15046865
0.15085509
0.15125768
0.15167617
0.15211036
0.15255999
0.15302484
0.15350465
0.15399918
0.15450817
0.15503135
0.15556845
0.1561192
0.15668331
0.15726048
0.15785042
0.15845283
0.15906737
0.15969375
0.16033162
0.16098066
0.16164051
0.16231085
0.1629913
0.16368153
0.16438115
0.1650898
0.16580711
0.16653269
0.16726618
0.16800717
0.16875528
0.16951012
0.17027128
0.17103838
0.171811
0.17258874
0.17337119
0.17415795
0.1749486
0.17574272
0.17653992
0.17733976
0.17814183
0.17894572
0.17975101
0.18055728
0.18136412
0.1821711
0.18297782
0.18378385
0.18458878
0.18539219
0.18619368
0.18699283
0.18778922
0.18858246
0.18937212
0.19015781
0.19093911
0.19171562
0.19248693
0.19325264
0.19401235
0.19476567
0.14709331
0.14724742
0.14742289
0.14761598
0.14782783
0.14805815
0.14830663
0.14857302
0.14885709
0.14915861
0.14947735
0.14981309
0.15016561
0.15053468
0.15092009
0.15132161
0.15173901
0.15217206
0.15262052
0.15308415
0.15356272
0.15405596
0.15456361
0.15508542
0.15562112
0.15617042
0.15673304
0.15730868
0.15789706
0.15849785
0.15911076
0.15973545
0.16037161
0.16101889
0.16167695
0.16234546
0.16302406
0.16371239
0.16441009
0.16511679
0.16583212
0.1665557
0.16728714
0.16802607
0.1687721
0.16952483
0.17028386
0.1710488
0.17181925
0.17259481
0.17337506
0.1741596
0.17494801
0.1757399
0.17653483
0.17733241
0.17813221
0.17893382
0.17973683
0.18054081
0.18134535
0.18215003
0.18295445
0.18375817
0.1845608
0.18536192
0.18616111
0.18695797
0.18775208
0.18854303
0.18933041
0.19011383
0.19089286
0.19166712
0.19243618
0.19319966
0.19395715
0.19470824
0.14716627
0.14731937
0.14749416
0.1476864
0.14789744
0.14812696
0.14837462
0.14864019
0.14892343
0.1492241
0.14954197
0.14987682
0.15022843
0.15059656
0.15098099
0.1513815
0.15179786
0.15222984
0.15267719
0.15313968
0.15361707
0.15410909
0.15461549
0.15513601
0.15567037
0.15621831
0.15677952
0.15735372
0.15794062
0.1585399
0.15915125
0.15977435
0.16040889
0.16105451
0.16171089
0.16237767
0.16305452
0.16374106
0.16443695
0.1651418
0.16585526
0.16657694
0.16730646
0.16804345
0.1687875
0.16953824
0.17029526
0.17105817
0.17182657
0.17260006
0.17337823
0.17416068
0.17494699
0.17573675
0.17652956
0.177325
0.17812265
0.17892211
0.17972296
0.18052477
0.18132715
0.18212966
0.1829319
0.18373346
0.18453392
0.18533286
0.18612989
0.18692458
0.18771653
0.18850532
0.18929056
0.19007183
0.19084873
0.19162086
0.1923878
0.19314917
0.19390456
0.19465356
0.1472346
0.14738676
0.14756093
0.14775238
0.14796266
0.14819143
0.14843834
0.14870315
0.14898561
0.14928549
0.14960255
0.14993656
0.15028731
0.15065455
0.15103807
0.15143763
0.15185301
0.15228398
0.15273029
0.1531917
0.15366797
0.15415884
0.15466406
0.15518336
0.15571647
0.15626311
0.15682299
0.15739583
0.15798133
0.15857918
0.15918907
0.15981067
0.16044367
0.16108773
0.16174251
0.16240767
0.16308286
0.16376772
0.16446189
0.16516501
0.1658767
0.16659659
0.16732429
0.16805944
0.16880163
0.16955049
0.17030561
0.17106661
0.17183307
0.17260461
0.17338081
0.17416128
0.1749456
0.17573337
0.17652417
0.17731759
0.17811322
0.17891064
0.17970945
0.18050922
0.18130955
0.18211001
0.18291021
0.18370971
0.18450812
0.18530502
0.1861
0.18689264
0.18768255
0.18846932
0.18925253
0.19003177
0.19080666
0.19157678
0.19234172
0.1931011
0.1938545
0.19460154
0.14729858
0.14744988
0.14762348
0.14781421
0.14802379
0.14825187
0.14849808
0.14876217
0.14904391
0.14934305
0.14965934
0.14999258
0.15034251
0.15070892
0.15109158
0.15149025
0.15190471
0.15233472
0.15278005
0.15324044
0.15371566
0.15420545
0.15470955
0.1552277
0.15575962
0.15630504
0.15686368
0.15743523
0.15801941
0.15861591
0.15922441
0.1598446
0.16047616
0.16111874
0.16177201
0.16243564
0.16310926
0.16379253
0.16448509
0.16518656
0.16589658
0.16661478
0.16734077
0.16807418
0.16881462
0.1695617
0.17031503
0.17107421
0.17183885
0.17260855
0.1733829
0.1741615
0.17494394
0.17572981
0.17651872
0.17731023
0.17810395
0.17889945
0.17969633
0.18049418
0.18129257
0.18209111
0.18288936
0.18368693
0.18448341
0.18527837
0.18607142
0.18686214
0.18765012
0.18843496
0.18921626
0.1899936
0.19076658
0.19153481
0.19229787
0.19305536
0.1938069
0.19455208
0.14735849
0.147509
0.14768209
0.14787214
0.14808108
0.14830852
0.14855408
0.14881752
0.14909858
0.14939702
0.14971261
0.15004511
0.15039428
0.15075991
0.15114176
0.15153959
0.15195319
0.1523823
0.1528267
0.15328614
0.15376037
0.15424914
0.15475219
0.15526925
0.15580005
0.15634432
0.15690178
0.15747212
0.15805505
0.15865028
0.15925747
0.15987633
0.16050652
0.1611477
0.16179956
0.16246173
0.16313388
0.16381565
0.16450668
0.1652066
0.16591505
0.16663165
0.16735602
0.16808779
0.16882657
0.16957197
0.17032361
0.17108108
0.171844
0.17261196
0.17338455
0.17416139
0.17494206
0.17572615
0.17651326
0.17730298
0.17809489
0.17888858
0.17968365
0.18047967
0.18127624
0.18207295
0.18286938
0.18366512
0.18445977
0.1852529
0.18604413
0.18683303
0.18761919
0.18840223
0.18918171
0.18995725
0.19072844
0.19149488
0.19225616
0.19301188
0.19376166
0.19450508
0.14741459
0.14756436
0.147737
0.14792644
0.14813479
0.14836164
0.14860659
0.14886942
0.14914985
0.14944765
0.14976258
0.15009439
0.15044286
0.15080775
0.15118884
0.15158589
0.15199866
0.15242694
0.15287046
0.153329
0.1538023
0.1542901
0.15479216
0.15530819
0.15583795
0.15638113
0.15693747
0.15750667
0.15808843
0.15868245
0.15928841
0.15990601
0.16053491
0.16117478
0.1618253
0.16248611
0.16315686
0.16383721
0.1645268
0.16522525
0.16593222
0.16664731
0.16737016
0.16810038
0.16883759
0.16958141
0.17033145
0.17108731
0.17184859
0.17261491
0.17338586
0.17416103
0.17494002
0.17572243
0.17650785
0.17729586
0.17808607
0.17887805
0.1796714
0.18046571
0.18126056
0.18205554
0.18285025
0.18364426
0.18443718
0.1852286
0.1860181
0.18680528
0.18758973
0.18837105
0.18914884
0.18992268
0.19069217
0.19145692
0.19221652
0.19297058
0.19371869
0.19446045
0.1474671
0.14761622
0.14778845
0.14797732
0.14818513
0.14841144
0.14865584
0.1489181
0.14919795
0.14949515
0.14980946
0.15014063
0.15048843
0.15085264
0.15123301
0.15162932
0.15204134
0.15246882
0.15291152
0.15336921
0.15384163
0.15432853
0.15482965
0.15534472
0.15587348
0.15641564
0.15697093
0.15753905
0.15811971
0.15871259
0.15931739
0.1599338
0.16056148
0.16120012
0.16184936
0.16250888
0.16317833
0.16385734
0.16454556
0.16524264
0.1659482
0.16666187
0.16738327
0.16811203
0.16884777
0.16959009
0.17033862
0.17109296
0.17185271
0.17261747
0.17338686
0.17416046
0.17493787
0.17571869
0.17650251
0.17728892
0.17807752
0.17886788
0.17965961
0.1804523
0.18124552
0.18203888
0.18283195
0.18362434
0.18441563
0.18520542
0.18599329
0.18677885
0.18756169
0.1883414
0.18911757
0.18988981
0.1906577
0.19142086
0.19217888
0.19293135
0.1936779
0.1944181
0.14751627
0.14766478
0.14783666
0.14802501
0.14823233
0.14845814
0.14870203
0.14896376
0.14924308
0.14953972
0.14985345
0.15018403
0.15053121
0.15089477
0.15127448
0.1516701
0.1520814
0.15250813
0.15295007
0.15340695
0.15387855
0.15436459
0.15486483