/*--------------------------------*- C++ -*----------------------------------*\
| =========                 |                                                 |
| \\      /  F ield         | OpenFOAM: The Open Source CFD Toolbox           |
|  \\    /   O peration     | Version:  2.4.0                                 |
|   \\  /    A nd           | Web:      www.OpenFOAM.org                      |
|    \\/     M anipulation  |                                                 |
\*---------------------------------------------------------------------------*/
FoamFile
{
    version     2.0;
    format      ascii;
    class       surfaceScalarField;
    location    "15000";
    object      phi;
}
// * * * * * * * * * * * * * * * * * * * * * * * * * * * * * * * * * * * * * //

dimensions      [0 3 -1 0 0 0 0];

internalField   nonuniform List<scalar> 
19250
(
0.0079623154
-0.00013469552
0.0079599744
-0.00013890897
0.0079574512
-0.00014313361
0.0079547415
-0.00014736385
0.0079518418
-0.00015159413
0.0079487496
-0.00015581891
0.007945463
-0.00016003277
0.0079419811
-0.00016423042
-0.00016840709
0.0078323987
-0.00013237475
0.0078299178
-0.000136428
0.0078272719
-0.00014048777
0.0078244574
-0.00014454927
0.0078214709
-0.00014860767
0.0078183101
-0.00015265812
0.0078149732
-0.00015669582
0.0078114588
-0.00016071611
-0.00016471449
0.0076930598
-0.00012990697
0.007690446
-0.00013381422
0.007687682
-0.00013772375
0.0076847641
-0.00014163144
0.0076816895
-0.00014553307
0.0076784559
-0.00014942442
0.0076750613
-0.00015330123
0.0076715045
-0.0001571593
-0.00016099451
0.0075464205
-0.0001273078
0.007543687
-0.00013108077
0.0075408156
-0.00013485229
0.0075378029
-0.00013861874
0.0075346462
-0.00014237646
0.0075313435
-0.0001461217
0.007527893
-0.00014985068
0.0075242933
-0.00015355963
-0.00015724482
0.007394188
-0.00012459897
0.0073913542
-0.00012824706
0.0073883925
-0.0001318905
0.0073852998
-0.00013552611
0.007382074
-0.00013915063
0.007378713
-0.00014276073
0.0073752154
-0.00014635305
0.00737158
-0.00014992417
-0.0001534707
0.0072377329
-0.00012180664
0.0072348233
-0.00012533738
0.0072317935
-0.00012886078
0.0072286414
-0.00013237401
0.007225365
-0.00013587415
0.0072219625
-0.00013935825
0.0072184326
-0.00014282324
0.0072147745
-0.00014626606
-0.00014968361
0.0070781787
-0.00011895813
0.007075219
-0.0001223777
0.0070721459
-0.00012578764
0.0070689573
-0.00012918545
0.0070656517
-0.00013256853
0.0070622276
-0.00013593417
0.007058684
-0.00013927965
0.0070550201
-0.00014260216
0.0070512354
-0.00014589887
0.0070473296
-0.00014916696
0.0070433027
-0.00015240361
0.007039155
-0.00015560599
0.0070348869
-0.00015877132
0.0070304992
-0.00016189684
-0.00016497988
0.0069164755
-0.00011607908
0.0069134904
-0.00011939265
0.0069103975
-0.00012269468
0.006907195
-0.00012598295
0.0069038815
-0.00012925509
0.006900456
-0.00013250868
0.0068969176
-0.00013574123
0.0068932656
-0.00013895019
0.0068894998
-0.00014213299
0.0068856198
-0.00014528702
0.0068816259
-0.00014840969
0.0068775183
-0.0001514984
0.0068732976
-0.00015455058
0.0068689644
-0.00015756365
-0.00016053512
0.0067534408
-0.00011319195
0.0067504521
-0.000116404
0.0067473604
-0.00011960292
0.0067441641
-0.00012278667
0.0067408622
-0.00012595317
0.0067374537
-0.00012910019
0.006733938
-0.00013222549
0.0067303145
-0.00013532673
0.0067265831
-0.00013840156
0.0067227436
-0.00014144759
0.0067187964
-0.00014446241
0.0067147416
-0.00014744364
0.0067105799
-0.00015038887
0.006706312
-0.00015329572
-0.00015616186
0.0065897854
-0.0001103156
0.0065868115
-0.00011343011
0.0065837387
-0.00011653011
0.0065805658
-0.0001196138
0.006577292
-0.00012267929
0.0065739163
-0.00012572457
0.0065704384
-0.0001287476
0.0065668579
-0.00013174623
0.0065631747
-0.00013471831
0.0065593887
-0.00013766163
0.0065555003
-0.00014057399
0.0065515098
-0.00014345314
0.0065474178
-0.00014629688
0.0065432251
-0.00014910297
-0.00015186924
0.0064261258
-0.00010746539
0.0064231816
-0.00011048592
0.0064201423
-0.0001134908
0.0064170069
-0.00011647842
0.0064137747
-0.00011944706
0.006410445
-0.00012239492
0.0064070176
-0.00012532011
0.006403492
-0.0001282207
0.0063998684
-0.00013109468
0.0063961468
-0.00013394003
0.0063923275
-0.00013675469
0.006388411
-0.00013953661
0.0063843978
-0.00014228369
0.0063802887
-0.00014499389
-0.00014766514
0.0062629967
-0.00010465355
0.0062600942
-0.00010758338
0.0062571
-0.0001104966
0.0062540134
-0.00011339179
0.0062508337
-0.00011626737
0.0062475605
-0.00011912172
0.0062441935
-0.00012195312
0.0062407326
-0.00012475979
0.0062371778
-0.00012753987
0.0062335293
-0.00013029152
0.0062297874
-0.00013301282
0.0062259526
-0.00013570184
0.0062220256
-0.00013835666
0.006218007
-0.00014097534
0.0062138978
-0.00014355595
0.006209699
-0.00014609659
-0.00014859534
0.0061008595
-0.00010188968
0.006098008
-0.00010473184
0.006095068
-0.00010755661
0.0060920389
-0.00011036271
0.0060889203
-0.00011314872
0.0060857117
-0.00011591317
0.0060824131
-0.00011865447
0.0060790243
-0.00012137099
0.0060755454
-0.00012406104
0.0060719768
-0.00012672288
0.0060683187
-0.00012935475
0.0060645718
-0.00013195486
0.0060607365
-0.0001345214
0.0060568137
-0.00013705255
0.0060528043
-0.00013954651
0.0060487092
-0.00014200149
0.0060445295
-0.00014441569
0.0060402665
-0.00014678733
0.0060359214
-0.0001491147
0.0060314956
-0.00015139606
0.0060269907
-0.00015362974
-0.0001558141
0.0059401101
-9.9181158e-05
0.0059373167
-0.00010193847
0.0059344379
-0.00010467778
0.0059314731
-0.0001073979
0.0059284219
-0.00011009757
0.0059252842
-0.00011277544
0.0059220598
-0.00011543006
0.0059187487
-0.00011805993
0.0059153512
-0.0001206635
0.0059118675
-0.00012323915
0.0059082979
-0.00012578522
0.0059046431
-0.00012830008
0.0059009037
-0.000130782
0.0058970805
-0.0001332293
0.0058931743
-0.00013564029
0.005889186
-0.00013801325
0.0058851168
-0.0001403465
0.0058809679
-0.00014263838
0.0058767404
-0.00014488723
0.0058724358
-0.00014709142
0.0058680554
-0.00014924936
0.0058636008
-0.00015135949
0.0058590735
-0.00015342026
0.0058544752
-0.00015543019
0.0058498076
-0.00015738783
0.0058450725
-0.00015929176
0.0058402717
-0.00016114062
0.0058354071
-0.00016293308
0.0058304807
-0.00016466787
0.0058254944
-0.00016634376
-0.00016795956
0.0057887852
-8.8405571e-05
0.0057863
-9.1131239e-05
0.0057837339
-9.3840768e-05
0.0057810862
-9.6533497e-05
0.0057783564
-9.9208638e-05
0.0057755439
-0.00010186526
0.0057726483
-0.00010450231
0.0057696694
-0.00010711866
0.005766607
-0.00010971306
0.0057634611
-0.00011228419
0.0057602319
-0.00011483067
0.0057569194
-0.00011735105
0.0057535241
-0.00011984384
0.0057500464
-0.00012230751
0.0057464868
-0.00012474049
0.005742846
-0.00012714121
0.0057391248
-0.00012950806
0.005735324
-0.00013183946
0.0057314445
-0.00013413379
0.0057274875
-0.00013638946
0.005723454
-0.00013860489
0.0057193452
-0.00014077851
0.0057151626
-0.00014290877
0.0057109074
-0.00014499416
0.0057065811
-0.00014703319
0.0057021852
-0.00014902438
0.0056977213
-0.00015096632
0.0056931911
-0.00015285762
0.0056885963
-0.00015469691
0.0056839386
-0.00015648289
0.0056792198
-0.00015821429
0.0056744418
-0.00015988988
0.0056696065
-0.00016150847
-0.00016306893
0.005631586
-8.6058497e-05
0.005629161
-8.8706237e-05
0.0056266574
-9.1337161e-05
0.0056240746
-9.3950699e-05
0.0056214122
-9.6546163e-05
0.0056186696
-9.9122731e-05
0.0056158468
-0.00010167946
0.0056129434
-0.00010421531
0.0056099595
-0.00010672915
0.0056068951
-0.00010921978
0.0056037504
-0.00011168591
0.0056005255
-0.0001141262
0.0055972209
-0.00011653926
0.0055938371
-0.00011892367
0.0055903745
-0.00012127795
0.005586834
-0.00012360063
0.0055832161
-0.00012589021
0.0055795218
-0.00012814518
0.0055757521
-0.00013036402
0.0055719078
-0.00013254523
0.0055679903
-0.0001346873
0.0055640005
-0.00013678874
0.0055599398
-0.0001388481
0.0055558096
-0.0001408639
0.0055516111
-0.00014283475
0.005547346
-0.00014475922
0.0055430156
-0.00014663597
0.0055386217
-0.00014846366
0.0055341658
-0.00015024099
0.0055296496
-0.0001519667
0.0055250748
-0.00015363957
0.0055204434
-0.00015525842
0.005515757
-0.0001568221
-0.00015832951
0.0054766311
-8.3772621e-05
0.0054742693
-8.6344418e-05
0.005471831
-8.8898865e-05
0.0054693157
-9.1435474e-05
0.0054667232
-9.3953646e-05
0.0054640531
-9.6452652e-05
0.0054613053
-9.8931641e-05
0.0054584797
-0.00010138967
0.0054555762
-0.00010382571
0.0054525951
-0.00010623864
0.0054495365
-0.00010862727
0.0054464006
-0.00011099037
0.005443188
-0.00011332664
0.0054398991
-0.00011563474
0.0054365344
-0.00011791329
0.0054330947
-0.00012016092
0.0054295807
-0.00012237619
0.0054259932
-0.0001245577
0.0054223332
-0.000126704
0.0054186016
-0.00012881366
0.0054147996
-0.00013088527
0.0054109283
-0.0001329174
0.0054069888
-0.00013490866
0.0054029826
-0.00013685765
0.0053989109
-0.00013876304
0.0053947751
-0.00014062346
0.0053905768
-0.00014243765
0.0053863174
-0.00014420428
0.0053819985
-0.00014592214
0.0053776218
-0.00014759
0.005373189
-0.00014920669
0.0053687016
-0.00015077108
0.0053641616
-0.00015228206
-0.00015373858
0.0053241246
-8.1549839e-05
0.0053218278
-8.4047623e-05
0.0053194566
-8.6527639e-05
0.0053170106
-8.8989487e-05
0.0053144896
-9.1432646e-05
0.0053118934
-9.3856459e-05
0.005309222
-9.6260167e-05
0.0053064752
-9.8642912e-05
0.0053036532
-0.00010100374
0.0053007562
-0.00010334163
0.0052977844
-0.00010565548
0.0052947382
-0.00010794412
0.0052916179
-0.00011020636
0.0052884241
-0.00011244094
0.0052851574
-0.00011464657
0.0052818184
-0.00011682194
0.0052784079
-0.00011896571
0.0052749268
-0.00012107654
0.0052713758
-0.00012315307
0.0052677561
-0.00012519394
0.0052640686
-0.00012719779
0.0052603145
-0.00012916329
0.005256495
-0.0001310891
0.0052526112
-0.00013297389
0.0052486645
-0.00013481638
0.0052446563
-0.00013661526
0.005240588
-0.00013836931
0.005236461
-0.00014007729
0.0052322769
-0.00014173801
0.0052280372
-0.00014335029
0.0052237435
-0.00014491302
0.0052193975
-0.00014642509
0.0052150009
-0.00014788544
-0.00014929306
0.0051742333
-7.9391163e-05
0.0051720025
-8.1816796e-05
0.0051696992
-8.4224364e-05
0.0051673233
-8.6613544e-05
0.0051648745
-8.8983866e-05
0.0051623528
-9.1334763e-05
0.0051597582
-9.3665539e-05
0.0051570907
-9.5975409e-05
0.0051543504
-9.8263509e-05
0.0051515377
-0.00010052888
0.0051486527
-0.0001027705
0.0051456959
-0.00010498729
0.0051426676
-0.00010717812
0.0051395685
-0.00010934182
0.0051363991
-0.00011147717
0.0051331601
-0.00011358292
0.0051298522
-0.00011565783
0.0051264763
-0.00011770062
0.0051230332
-0.00011970998
0.005119524
-0.00012168465
0.0051159495
-0.00012362333
0.0051123109
-0.00012552473
0.0051086094
-0.00012738758
0.0051048461
-0.00012921062
0.0051010224
-0.00013099261
0.0050971394
-0.00013273232
0.0050931987
-0.00013442855
0.0050892015
-0.00013608013
0.0050851494
-0.0001376859
0.0050810438
-0.00013924475
0.0050768864
-0.00014075558
0.0050726787
-0.00014221735
0.0050684222
-0.00014362902
0.0050641188
-0.00014498961
0.00505977
-0.00014629816
0.0050553776
-0.00014755376
0.0050509433
-0.00014875553
0.005046469
-0.00014990261
0.0050419564
-0.00015099422
0.0050374073
-0.00015202958
-0.00015300795
0.0050270941
-7.7296854e-05
0.0050249295
-7.9652158e-05
0.0050226943
-8.1989217e-05
0.0050203885
-8.4307738e-05
0.005018012
-8.6607339e-05
0.0050155647
-8.8887497e-05
0.0050130468
-9.1147591e-05
0.0050104583
-9.3386905e-05
0.0050077994
-9.5604632e-05
0.0050050704
-9.7799891e-05
0.0050022716
-9.997173e-05
0.0049994035
-0.00010211914
0.0049964664
-0.00010424105
0.0049934609
-0.00010633637
0.0049903877
-0.00010840394
0.0049872474
-0.0001104426
0.0049840407
-0.00011245115
0.0049807685
-0.00011442838
0.0049774316
-0.00011637307
0.0049740309
-0.00011828398
0.0049705675
-0.0001201599
0.0049670423
-0.0001219996
0.0049634566
-0.00012380186
0.0049598115
-0.00012556547
0.0049561081
-0.00012728924
0.0049523478
-0.000128972
0.0049485318
-0.00013061259
0.0049446616
-0.0001322099
0.0049407385
-0.00013376281
0.004936764
-0.00013527023
0.0049327395
-0.00013673114
0.0049286667
-0.0001381445
0.004924547
-0.00013950931
0.004920382
-0.00014082465
0.0049161734
-0.00014208957
0.0049119229
-0.00014330319
0.004907632
-0.00014446468
0.0049033026
-0.00014557317
0.0048989363
-0.00014662792
0.0048945349
-0.00014762818
-0.00014857322
0.0048887
-6.8296199e-05
0.0048868063
-7.0638222e-05
0.0048848445
-7.2961564e-05
0.0048828142
-7.5266587e-05
0.0048807154
-7.7553363e-05
0.004878548
-7.9821782e-05
0.0048763118
-8.2071618e-05
0.004874007
-8.4302534e-05
0.0048716336
-8.651406e-05
0.0048691917
-8.8705643e-05
0.0048666814
-9.0876614e-05
0.004864103
-9.3026238e-05
0.0048614568
-9.5153688e-05
0.0048587431
-9.7258074e-05
0.0048559624
-9.9338457e-05
0.0048531152
-0.00010139383
0.004850202
-0.00010342314
0.0048472234
-0.00010542534
0.0048441801
-0.00010739928
0.0048410728
-0.00010934385
0.0048379023
-0.0001112579
0.0048346695
-0.00011314025
0.0048313752
-0.00011498975
0.0048280205
-0.00011680521
0.0048246064
-0.00011858548
0.004821134
-0.00012032938
0.0048176042
-0.00012203576
0.0048140185
-0.00012370347
0.0048103779
-0.0001253314
0.0048066837
-0.00012691843
0.0048029373
-0.00012846348
0.00479914
-0.00012996549
0.0047952932
-0.0001314234
0.0047913983
-0.00013283623
0.0047874567
-0.00013420298
0.0047834701
-0.00013552269
0.0047794399
-0.00013679445
0.0047753677
-0.00013801735
0.0047712551
-0.00013919056
0.0047671036
-0.00014031322
0.004762915
-0.00014138456
0.0047586909
-0.00014240381
0.0047544329
-0.00014337024
-0.00014428317
0.0047471792
-6.6528975e-05
0.0047453455
-6.8804527e-05
0.0047434452
-7.1061263e-05
0.0047414782
-7.3299581e-05
0.0047394444
-7.5519587e-05
0.0047373438
-7.772121e-05
0.0047351765
-7.9904279e-05
0.0047329424
-8.2068488e-05
0.0047306418
-8.4213426e-05
0.0047282747
-8.6338588e-05
0.0047258415
-8.844336e-05
0.0047233423
-9.0527054e-05
0.0047207775
-9.2588901e-05
0.0047181475
-9.4628077e-05
0.0047154527
-9.6643683e-05
0.0047126937
-9.8634779e-05
0.0047098709
-0.00010060038
0.0047069851
-0.00010253946
0.0047040367
-0.00010445097
0.0047010267
-0.00010633383
0.0046979558
-0.00010818694
0.0046948247
-0.00011000921
0.0046916345
-0.0001117995
0.004688386
-0.0001135567
0.0046850802
-0.0001152797
0.0046817182
-0.00011696737
0.004678301
-0.00011861861
0.0046748299
-0.00012023232
0.0046713059
-0.00012180742
0.0046677303
-0.00012334285
0.0046641044
-0.00012483757
0.0046604294
-0.00012629053
0.0046567068
-0.00012770077
0.0046529378
-0.00012906728
0.004649124
-0.00013038911
0.0046452667
-0.00013166537
0.0046413674
-0.00013289514
0.0046374276
-0.00013407757
0.0046334488
-0.00013521181
0.0046294327
-0.00013629708
0.0046253807
-0.00013733259
0.0046212945
-0.00013831762
0.0046171757
-0.00013925144
-0.00014013341
0.0046086674
-6.4819132e-05
0.0046068926
-6.7029705e-05
0.0046050527
-6.9221419e-05
0.0046031478
-7.1394697e-05
0.0046011779
-7.3549669e-05
0.004599143
-7.5686309e-05
0.0045970432
-7.7804475e-05
0.0045948786
-7.9903911e-05
0.0045926494
-8.1984241e-05
0.0045903559
-8.4045004e-05
0.0045879981
-8.6085638e-05
0.0045855766
-8.8105501e-05
0.0045830916
-9.0103879e-05
0.0045805435
-9.2079981e-05
0.0045779328
-9.4032977e-05
0.00457526
-9.5961972e-05
0.0045725256
-9.7866032e-05
0.0045697303
-9.9744189e-05
0.0045668748
-0.00010159543
0.0045639597
-0.00010341875
0.0045609859
-0.00010521309
0.0045579541
-0.00010697739
0.0045548651
-0.00010871059
0.0045517201
-0.00011041162
0.0045485198
-0.0001120794
0.0045452653
-0.00011371287
0.0045419576
-0.00011531096
0.0045385979
-0.00011687262
0.0045351873
-0.00011839681
0.004531727
-0.00011988252
0.0045282182
-0.00012132872
0.0045246621
-0.00012273444
0.00452106
-0.0001240987
0.0045174133
-0.00012542057
0.0045137233
-0.00012669914
0.0045099915
-0.0001279335
0.0045062191
-0.0001291228
0.0045024077
-0.0001302662
0.0044985588
-0.00013136288
0.0044946738
-0.00013241209
0.0044907543
-0.00013341306
0.0044868018
-0.00013436509
0.0044828178
-0.00013526747
0.004478804
-0.00013611958
0.0044747619
-0.00013692074
0.0044706931
-0.00013767043
0.0044665992
-0.00013836806
0.004462482
-0.00013901306
0.004458343
-0.00013960496
0.0044541839
-0.0001401433
0.0044500064
-0.00014062763
0.0044458121
-0.00014105749
0.0044416027
-0.00014143259
0.0044373798
-0.00014175251
0.0044331453
-0.00014201691
0.0044289007
-0.00014222554
0.0044246477
-0.00014237807
0.0044203881
-0.00014247426
0.0044161236
-0.00014251387
0.0044118557
-0.00014249674
0.0044075863
-0.00014242262
0.004403317
-0.0001422914
0.0043990495
-0.00014210287
0.0043947854
-0.00014185695
0.0043905265
-0.00014155355
0.0043862744
-0.00014119248
0.0043820308
-0.00014077376
0.0043777972
-0.00014029726
0.0043735756
-0.00013976295
0.0043693673
-0.00013917077
0.0043651741
-0.0001385207
0.0043609977
-0.00013781271
0.0043568396
-0.00013704677
0.0043527015
-0.00013622289
0.0043485849
-0.00013534101
-0.00013440116
0.0044732092
-6.3165285e-05
0.0044714919
-6.5312382e-05
0.0044697111
-6.7440654e-05
0.004467867
-6.9550537e-05
0.0044659595
-7.1642191e-05
0.0044639888
-7.3715623e-05
0.0044619551
-7.5770716e-05
0.0044598584
-7.7807253e-05
0.0044576991
-7.9824903e-05
0.0044554773
-8.182323e-05
0.0044531934
-8.3801725e-05
0.0044508477
-8.5759779e-05
0.0044484405
-8.7696727e-05
0.0044459724
-8.9611831e-05
0.0044434437
-9.1504291e-05
0.004440855
-9.3373273e-05
0.0044382068
-9.5217879e-05
0.0044354998
-9.7037196e-05
0.0044327346
-9.8830261e-05
0.004429912
-0.00010059611
0.0044270326
-0.00010233372
0.0044240974
-0.00010404211
0.004421107
-0.00010572024
0.0044180625
-0.00010736708
0.0044149647
-0.00010898162
0.0044118146
-0.00011056282
0.0044086133
-0.00011210966
0.0044053618
-0.00011362114
0.0044020613
-0.00011509624
0.0043987127
-0.000116534
0.0043953175
-0.00011793343
0.0043918766
-0.00011929359
0.0043883914
-0.00012061354
0.0043848633
-0.00012189238
0.0043812933
-0.00012312921
0.004377683
-0.00012432318
0.0043740336
-0.00012547345
0.0043703467
-0.00012657921
0.0043666234
-0.00012763967
0.0043628654
-0.0001286541
0.0043590741
-0.00012962175
0.004355251
-0.00013054193
0.0043513975
-0.00013141398
0.0043475152
-0.00013223725
0.0043436055
-0.00013301112
0.0043396702
-0.00013373509
0.0043357107
-0.00013440852
0.0043317285
-0.00013503092
0.0043277254
-0.0001356018
0.0043237028
-0.00013612072
0.0043196624
-0.0001365872
0.0043156057
-0.00013700087
0.0043115345
-0.00013736137
0.0043074503
-0.00013766831
0.0043033548
-0.00013792138
0.0042992495
-0.00013812027
0.0042951362
-0.00013826473
0.0042910164
-0.00013835446
0.0042868918
-0.00013838926
0.004282764
-0.00013836894
0.0042786346
-0.00013829327
0.0042745053
-0.00013816211
0.0042703777
-0.00013797528
0.0042662535
-0.00013773271
0.0042621342
-0.00013743425
0.0042580214
-0.00013707975
0.0042539169
-0.0001366692
0.0042498221
-0.00013620251
0.0042457388
-0.00013567959
0.0042416684
-0.00013510038
0.0042376126
-0.00013446491
0.004233573
-0.00013377309
0.0042295511
-0.00013302488
0.0042255485
-0.00013222034
0.0042215669
-0.00013135936
-0.00013044195
0.0043408331
-6.1565872e-05
0.0043391717
-6.3650997e-05
0.0043374485
-6.5717395e-05
0.0043356635
-6.7765515e-05
0.0043338168
-6.979554e-05
0.0043319087
-7.1807503e-05
0.0043299393
-7.3801314e-05
0.0043279088
-7.5776787e-05
0.0043258175
-7.7733623e-05
0.0043236657
-7.9671422e-05
0.0043214537
-8.1589708e-05
0.0043191818
-8.3487911e-05
0.0043168505
-8.5365408e-05
0.0043144602
-8.7221493e-05
0.0043120113
-8.905542e-05
0.0043095044
-9.0866389e-05
0.0043069401
-9.2653548e-05
0.0043043189
-9.4416027e-05
0.0043016416
-9.6152905e-05
0.0042989087
-9.7863257e-05
0.0042961211
-9.9546129e-05
0.0042932796
-0.00010120054
0.0042903849
-0.00010282553
0.0042874379
-0.0001044201
0.0042844395
-0.00010598327
0.0042813908
-0.00010751405
0.0042782926
-0.00010901146
0.004275146
-0.00011047453
0.004271952
-0.00011190229
0.0042687118
-0.00011329381
0.0042654265
-0.00011464813
0.0042620973
-0.00011596435
0.0042587253
-0.00011724156
0.0042553118
-0.00011847889
0.0042518581
-0.00011967547
0.0042483654
-0.00012083047
0.004244835
-0.00012194309
0.0042412683
-0.00012301254
0.0042376667
-0.00012403806
0.0042340315
-0.00012501891
0.0042303642
-0.00012595441
0.0042266661
-0.00012684386
0.0042229388
-0.00012768662
0.0042191836
-0.00012848206
0.0042154021
-0.00012922959
0.0042115957
-0.00012992869
0.0042077659
-0.00013057878
0.0042039143
-0.00013117932
0.0042000424
-0.00013172989
0.0041961517
-0.00013223005
0.0041922438
-0.00013267931
0.0041883202
-0.00013307726
0.0041843825
-0.00013342366
0.0041804323
-0.00013371806
0.004176471
-0.00013396013
0.0041725004
-0.00013414962
0.0041685219
-0.00013428623
0.0041645371
-0.00013436969
0.0041605476
-0.00013439981
0.0041565551
-0.00013437638
0.004152561
-0.00013429918
0.004148567
-0.00013416808
0.0041445745
-0.00013398286
0.0041405853
-0.00013374348
0.0041366009
-0.00013344979
0.0041326227
-0.00013310161
0.0041286525
-0.00013269894
0.0041246917
-0.00013224171
0.0041207418
-0.00013172976
0.0041168046
-0.00013116313
0.0041128814
-0.00013054174
0.0041089739
-0.00012986554
0.0041050835
-0.00012913452
0.0041012118
-0.00012834864
0.0040973603
-0.00012750791
-0.00012661222
0.0042115527
-6.0019201e-05
0.0042099456
-6.2043856e-05
0.0042082781
-6.4049933e-05
0.0042065505
-6.6037906e-05
0.0042047629
-6.8007962e-05
0.0042029156
-6.9960163e-05
0.0042010087
-7.1894445e-05
0.0041990426
-7.3810639e-05
0.0041970174
-7.5708481e-05
0.0041949336
-7.7587601e-05
0.0041927915
-7.9447546e-05
0.0041905913
-8.1287795e-05
0.0041883337
-8.3107743e-05
0.0041860189
-8.4906733e-05
0.0041836475
-8.6684048e-05
0.0041812201
-8.8438932e-05
0.0041787371
-9.0170572e-05
0.0041761992
-9.187813e-05
0.0041736071
-9.3560742e-05
0.0041709613
-9.5217506e-05
0.0041682627
-9.6847508e-05
0.004165512
-9.8449828e-05
0.00416271
-0.00010002352
0.0041598575
-0.00010156764
0.0041569555
-0.00010308124
0.0041540048
-0.00010456337
0.0041510064
-0.00010601308
0.0041479613
-0.00010742945
0.0041448706
-0.00010881154
0.0041417352
-0.00011015845
0.0041385563
-0.00011146925
0.004135335
-0.00011274307
0.0041320725
-0.00011397905
0.00412877
-0.00011517632
0.0041254286
-0.00011633406
0.0041220495
-0.00011745147
0.0041186342
-0.00011852775
0.0041151838
-0.00011956216
0.0041116997
-0.00012055394
0.0041081832
-0.00012150241
0.0041046357
-0.00012240686
0.0041010584
-0.00012326663
0.0040974529
-0.00012408111
0.0040938206
-0.00012484969
0.0040901627
-0.00012557175
0.0040864809
-0.00012624684
0.0040827764
-0.00012687436
0.0040790509
-0.0001274538
0.0040753058
-0.00012798473
0.0040715425
-0.00012846673
0.0040677625
-0.00012889932
0.0040639673
-0.00012928213
0.0040601585
-0.00012961485
0.0040563376
-0.00012989709
0.004052506
-0.00013012853
0.0040486652
-0.00013030889
0.0040448169
-0.00013043789
0.0040409625
-0.00013051528
0.0040371035
-0.00013054085
0.0040332415
-0.00013051438
0.004029378
-0.00013043566
0.0040255145
-0.00013030458
0.0040216526
-0.00013012091
0.0040177937
-0.00012988457
0.0040139393
-0.00012959545
0.0040100911
-0.00012925338
0.0040062505
-0.0001288583
0.0040024189
-0.00012841018
0.003998598
-0.00012790886
0.0039947892
-0.00012735433
0.003990994
-0.00012674655
0.003987214
-0.00012608546
0.0039834505
-0.00012537104
0.0039797051
-0.00012460325
0.0039759792
-0.00012378206
-0.00012290741
0.0040853702
-5.8523503e-05
0.0040838155
-6.0489175e-05
0.0040822021
-6.2436478e-05
0.00408053
-6.4365889e-05
0.0040787997
-6.6277615e-05
0.0040770113
-6.8171728e-05
0.004075165
-7.0048188e-05
0.0040732612
-7.1906852e-05
0.0040713002
-7.3747468e-05
0.0040692823
-7.5569701e-05
0.0040672079
-7.7373128e-05
0.0040650773
-7.9157244e-05
0.0040628911
-8.0921489e-05
0.0040606496
-8.2665235e-05
0.0040583533
-8.4387795e-05
0.0040560028
-8.6088447e-05
0.0040535987
-8.7766423e-05
0.0040511415
-8.9420912e-05
0.0040486318
-9.1051087e-05
0.0040460704
-9.2656089e-05
0.0040434579
-9.4235041e-05
0.0040407952
-9.5787055e-05
0.0040380829
-9.731122e-05
0.0040353219
-9.8806635e-05
0.004032513
-0.00010027239
0.0040296572
-0.00010170756
0.0040267554
-0.00010311124
0.0040238085
-0.00010448254
0.0040208175
-0.00010582055
0.0040177834
-0.0001071244
0.0040147074
-0.00010839321
0.0040115904
-0.00010962612
0.0040084337
-0.00011082229
0.0040052383
-0.00011198091
0.0040020054
-0.00011310117
0.0039987362
-0.00011418228
0.0039954319
-0.0001152235
0.0039920939
-0.00011622408
0.0039887232
-0.00011718329
0.0039853213
-0.00011810047
0.0039818894
-0.00011897494
0.0039784288
-0.00011980607
0.0039749409
-0.00012059323
0.0039714271
-0.00012133583
0.0039678886
-0.00012203332
0.003964327
-0.0001226852
0.0039607435
-0.0001232909
0.0039571397
-0.00012384993
0.0039535168
-0.0001243619
0.0039498764
-0.00012482632
0.0039462199
-0.0001252428
0.0039425487
-0.00012561093
0.0039388642
-0.00012593041
0.003935168
-0.00012620089
0.0039314615
-0.000126422
0.0039277461
-0.00012659353
0.0039240234
-0.00012671515
0.0039202948
-0.00012678663
0.0039165617
-0.00012680777
0.0039128256
-0.00012677833
0.0039090881
-0.00012669812
0.0039053505
-0.00012656702
0.0039016144
-0.00012638479
0.0038978812
-0.00012615139
0.0038941524
-0.00012586667
0.0038904295
-0.00012553044
0.0038867139
-0.00012514271
0.0038830071
-0.00012470335
0.0038793105
-0.00012421228
0.0038756256
-0.00012366945
0.0038719539
-0.00012307482
0.0038682967
-0.00012242833
0.0038646556
-0.00012172994
0.003861032
-0.00012097963
0.0038574273
-0.00012017735
-0.00011932307
0.0039622763
-5.7076947e-05
0.0039607722
-5.8985123e-05
0.0039592109
-6.0875176e-05
0.0039575926
-6.2747597e-05
0.0039559176
-6.4602596e-05
0.0039541861
-6.6440265e-05
0.0039523985
-6.8260576e-05
0.0039505551
-7.0063407e-05
0.0039486561
-7.1848525e-05
0.003946702
-7.3615615e-05
0.0039446932
-7.5364275e-05
0.00394263
-7.7094039e-05
0.0039405129
-7.8804362e-05
0.0039383423
-8.0494644e-05
0.0039361187
-8.2164243e-05
0.0039338427
-8.3812455e-05
0.0039315148
-8.5438545e-05
0.0039291357
-8.7041741e-05
0.0039267058
-8.8621252e-05
0.003924226
-9.0176246e-05
0.0039216968
-9.1705881e-05
0.0039191191
-9.3209307e-05
0.0039164935
-9.468565e-05
0.0039138209
-9.6134034e-05
0.0039111021
-9.7553589e-05
0.003908338
-9.8943428e-05
0.0039055294
-0.00010030267
0.0039026773
-0.00010163046
0.0038997827
-0.00010292592
0.0038968465
-0.00010418821
0.0038938698
-0.00010541648
0.0038908536
-0.00010660989
0.0038877989
-0.00010776765
0.003884707
-0.00010888895
0.0038815788
-0.00010997301
0.0038784156
-0.00011101909
0.0038752186
-0.00011202644
0.0038719888
-0.00011299435
0.0038687277
-0.00011392212
0.0038654363
-0.00011480909
0.0038621159
-0.0001156546
0.0038587679
-0.00011645803
0.0038553935
-0.00011721881
0.003851994
-0.00011793633
0.0038485707
-0.00011861004
0.003845125
-0.00011923948
0.0038416582
-0.0001198241
0.0038381716
-0.0001203634
0.0038346667
-0.000120857
0.0038311449
-0.00012130445
0.0038276074
-0.0001217053
0.0038240557
-0.00012205925
0.0038204912
-0.00012236591
0.0038169153
-0.00012262496
0.0038133294
-0.00012283612
0.0038097349
-0.00012299904
0.0038061332
-0.0001231135
0.0038025258
-0.00012317923
0.0037989141
-0.00012319606
0.0037952995
-0.00012316372
0.0037916834
-0.00012308203
0.0037880673
-0.00012295088
0.0037844525
-0.00012277003
0.0037808406
-0.00012253944
0.0037772328
-0.0001222589
0.0037736307
-0.00012192834
0.0037700357
-0.00012154765
0.0037664491
-0.00012111675
0.0037628724
-0.00012063557
0.0037593069
-0.00012010404
0.0037557542
-0.0001195221
0.0037522156
-0.00011888971
0.0037486925
-0.00011820682
0.0037451863
-0.00011747342
0.0037416984
-0.00011668943
-0.00011585485
0.0038422527
-5.5677692e-05
0.0038407974
-5.7529839e-05
0.0038392864
-5.9364155e-05
0.0038377199
-6.1181126e-05
0.0038360983
-6.2980983e-05
0.0038344219
-6.4763815e-05
0.0038326909
-6.6529614e-05
0.0038309058
-6.8278268e-05
0.0038290668
-7.0009564e-05
0.0038271744
-7.1723205e-05
0.0038252289
-7.3418811e-05
0.0038232308
-7.5095933e-05
0.0038211805
-7.6754056e-05
0.0038190785
-7.8392607e-05
0.0038169252
-8.0010964e-05
0.0038147212
-8.1608458e-05
0.003812467
-8.3184383e-05
0.0038101633
-8.4738e-05
0.0038078106
-8.6268539e-05
0.0038054096
-8.777521e-05
0.0038029609
-8.9257202e-05
0.0038004653
-9.071369e-05
0.0037979234
-9.2143839e-05
0.0037953362
-9.3546805e-05
0.0037927044
-9.4921742e-05
0.0037900287
-9.6267803e-05
0.0037873102
-9.758414e-05
0.0037845497
-9.8869911e-05
0.003781748
-0.00010012429
0.0037789063
-0.00010134644
0.0037760253
-0.00010253556
0.0037731063
-0.00010369084
0.0037701502
-0.0001048115
0.003767158
-0.00010589677
0.0037641308
-0.00010694588
0.0037610699
-0.00010795812
0.0037579762
-0.00010893276
0.003754851
-0.00010986912
0.0037516954
-0.00011076651
0.0037485105
-0.00011162428
0.0037452978
-0.00011244182
0.0037420582
-0.00011321851
0.0037387932
-0.00011395377
0.0037355039
-0.00011464704
0.0037321916
-0.00011529778
0.0037288577
-0.00011590553
0.0037255033
-0.00011646975
0.0037221299
-0.00011698997
0.0037187387
-0.00011746578
0.003715331
-0.0001178968
0.0037119083
-0.00011828256
0.0037084718
-0.00011862273
0.0037050229
-0.00011891701
0.0037015629
-0.000119165
0.0036980933
-0.00011936645
0.0036946153
-0.00011952106
0.0036911303
-0.00011962856
0.0036876398
-0.00011968872
0.0036841451
-0.00011970131
0.0036806475
-0.00011966614
0.0036771485
-0.000119583
0.0036736494
-0.00011945176
0.0036701515
-0.00011927222
0.0036666564
-0.00011904428
0.0036631653
-0.00011876781
0.0036596796
-0.00011844265
0.0036562007
-0.00011806876
0.00365273
-0.00011764604
0.0036492688
-0.00011717437
0.0036458185
-0.00011665376
0.0036423805
-0.00011608407
0.0036389561
-0.00011546531
0.0036355467
-0.00011479742
0.0036321536
-0.00011408033
0.0036287782
-0.00011331406
-0.00011249851
0.0037252744
-5.4323897e-05
0.003723866
-5.6121471e-05
0.0037224034
-5.7901541e-05
0.0037208868
-5.9664589e-05
0.0037193167
-6.141085e-05
0.0037176933
-6.3140419e-05
0.003716017
-6.4853305e-05
0.0037142881
-6.6549399e-05
0.0037125071
-6.8228504e-05
0.0037106742
-6.9890342e-05
0.0037087899
-7.1534545e-05
0.0037068547
-7.316069e-05
0.0037048689
-7.4768279e-05
0.0037028331
-7.6356761e-05
0.0037007477
-7.7925545e-05
0.0036986132
-7.9473981e-05
0.0036964302
-8.1001398e-05
0.0036941993
-8.2507077e-05
0.003691921
-8.399028e-05
0.0036895961
-8.545025e-05
0.0036872251
-8.68862e-05
0.0036848087
-8.8297336e-05
0.0036823477
-8.9682858e-05
0.0036798429
-9.1041944e-05
0.0036772949
-9.2373787e-05
0.0036747047