y,k
0,1e-10
0.00048240845,3.965978e-08
0.00098049384,4.3278506e-08
0.0014947656,1.6288865e-07
0.0020257498,4.8084342e-07
0.0025739895,1.1457494e-06
0.0031400454,2.3572851e-06
0.0037244966,4.3672582e-06
0.0043279408,7.4817887e-06
0.0049509953,1.2065198e-05
0.0055942973,1.8546401e-05
0.0062585048,2.7427463e-05
0.0069442972,3.9293089e-05
0.007652376,5.4819278e-05
0.0083834654,7.4778594e-05
0.0091383131,0.00010003953
0.0099176913,0.00013155675
0.010722397,0.00017034827
0.011553254,0.00021745599
0.012411111,0.00027388758
0.013296846,0.00034054066
0.014211364,0.00041811583
0.015155603,0.00050703098
0.016130526,0.00060735445
0.017137132,0.0007187745
0.018176449,0.00084061654
0.019249542,0.00097190832
0.020357507,0.0011114835
0.021501477,0.0012580953
0.022682624,0.0014105175
0.023902154,0.0015676248
0.025161316,0.0017284405
0.026461397,0.0018921552
0.027803728,0.0020581226
0.02918968,0.0022258423
0.030620672,0.0023949368
0.032098167,0.0025651278
0.033623676,0.0027362142
0.03519876,0.0029080545
0.03682503,0.0030805521
0.03850415,0.0032536449
0.040237836,0.0034272966
0.042027862,0.003601491
0.043876059,0.0037762271
0.045784317,0.0039515154
0.047754588,0.0041273758
0.049788888,0.0043038351
0.051889297,0.0044809252
0.054057963,0.0046586823
0.056297104,0.0048371451
0.058609012,0.0050163548
0.06099605,0.0051963536
0.06346066,0.0053771847
0.066005363,0.0055588914
0.068632762,0.0057415169
0.071345544,0.0059251042
0.074146484,0.0061096957
0.077038447,0.0062953327
0.08002439,0.0064820558
0.083107369,0.0066699042
0.086290535,0.0068589162
0.089577146,0.0070491287
0.092970562,0.0072405771
0.096474255,0.0074332955
0.10009181,0.0076273165
0.10382692,0.0078226713
0.10768342,0.0080193895
0.11166524,0.0082174995
0.11577645,0.0084170282
0.12002127,0.0086180011
0.12440404,0.0088204422
0.12892923,0.0090243738
0.13360148,0.0092298163
0.13842557,0.0094367885
0.14340642,0.0096453069
0.14854914,0.0098553855
0.15385898,0.010067036
0.15934138,0.010280268
0.16500194,0.010495087
0.17084645,0.010711496
0.17688089,0.0109295
0.18311143,0.011149098
0.18954445,0.011370293
0.19618653,0.011593086
0.20304445,0.011817475
0.21012524,0.012043459
0.21743614,0.012271037
0.22498461,0.012500204
0.23277839,0.012730958
0.24082545,0.012963299
0.24913402,0.013197226
0.25771259,0.013432743
0.26656994,0.013669861
0.27571513,0.013908594
0.28515751,0.014148968
0.29490674,0.014391024
0.3049728,0.014634818
0.31536597,0.014880429
0.3260969,0.015127966
0.33717655,0.015377577
0.34861625,0.015629456
0.36042772,0.015883863
0.37262303,0.016141133
0.38521464,0.016401703
0.39821546,0.016666134
0.41163876,0.016935149
0.42549828,0.017209683
0.4398082,0.017490935
0.45458315,0.017780433
0.46983824,0.018080138
0.48558908,0.018392557
0.50185179,0.018720913
0.50880893,0.018865367
0.51864298,0.019069363
0.53597984,0.019443255
0.5538801,0.019849512
0.57236207,0.02029716
0.59144465,0.020797865
0.61114736,0.02136436
0.63149036,0.022007744
0.65249445,0.022738525
0.67418111,0.023579679
0.69657252,0.024583488
0.7196916,0.025801852
0.74356198,0.027223087
0.76820808,0.028751411
0.79365511,0.030236694
0.8199291,0.031534948
0.84705692,0.032568054
0.87506632,0.033319304
0.90398595,0.033783519
0.93384538,0.033952918
0.96467516,0.033839348
0.99650683,0.033498231
1.0293729,0.033034031
1.0633071,0.032568906
1.098344,0.032195879
1.1345196,0.03195287
1.1668571,0.031843137
1.1718726,0.0318266
1.2104522,0.031772796
1.250285,0.031737907
1.2914115,0.031672907
1.3338737,0.031536051
1.3777151,0.031293455
1.4229805,0.030921637
1.4697159,0.030408386
1.5179692,0.029756348
1.5662215,0.028991394
1.6129542,0.028149401
1.6582152,0.027257547
1.7020508,0.026338282
1.7445059,0.025411159
1.785624,0.024489735
1.8070113,0.024003255
1.8254639,0.023583375
1.8640662,0.02269989
1.9014509,0.021845583
1.9376564,0.021024454
1.97272,0.020238808
2.0066778,0.019489632
2.0395648,0.018776981
2.0714147,0.01810025
2.1022603,0.017458374
2.1321334,0.016849987
2.1610646,0.016273539
2.1890837,0.015727387
2.2162195,0.015209871
2.2424998,0.014719352
2.2679518,0.01425424
2.2926015,0.013813024
2.3164742,0.01339428
2.3395945,0.012996683
2.3619861,0.012619012
2.3836721,0.012260145
2.4046746,0.011919058
2.4250153,0.011594808
2.4298497,0.011519157
2.4447218,0.011286419
2.463809,0.010993211
2.4822943,0.010714525
2.5001966,0.010449733
2.5175344,0.010198275
2.5343255,0.0099596492
2.5505871,0.0097334103
2.5663361,0.0095191626
2.5815885,0.0093165556
2.5963601,0.0091252788
2.610666,0.0089450577
2.624521,0.0087756484
2.6379393,0.0086168333
2.6509346,0.0084684166
2.6635203,0.0083302188
2.6757094,0.0082020721
2.6875143,0.0080838156
2.6989472,0.0079752899
2.7100198,0.0078763323
2.7207435,0.0077867719
2.7311293,0.0077064247
2.7411879,0.0076350904
2.7509295,0.0075725494
2.7603642,0.0075185576
2.7695016,0.0074728469
2.7783512,0.0074351246
2.7869219,0.0074050716
2.7952227,0.0073823455
2.8032619,0.0073665826
2.8110479,0.0073574018
2.8185886,0.0073544082
2.8258918,0.0073571886
2.832965,0.0073653515
2.8398154,0.0073785061
2.8464499,0.0073962433
2.8528756,0.0074181767
2.8590988,0.0074439357
2.865126,0.0074731694
2.8709634,0.0075055494
2.876617,0.0075407718
2.8820925,0.0075785582
2.8873956,0.0076186559
2.8925316,0.0076608376
2.897506,0.0077049
2.9023236,0.0077506621
2.9069896,0.007797963
2.9115086,0.0078466595
2.9158853,0.0078966225
2.9201242,0.007947733
2.9242297,0.0079998781
2.9282058,0.0080529536
2.9320568,0.0081068591
2.9357864,0.0081614942
2.9393987,0.0082167527
2.9428972,0.0082725195
2.9462856,0.0083286757
2.9495673,0.008385094
2.9527456,0.008441638
2.9558239,0.0084981613
2.9588052,0.0085545094
2.9616927,0.0086105216
2.9644893,0.008666034
2.9671978,0.0087208788
2.9698211,0.0087748805
2.9723618,0.0088277976
2.9748224,0.0088792227
2.9772057,0.0089285864
2.9795138,0.0089752294
2.9817494,0.0090184379
2.9839145,0.0090574618
2.9860115,0.0090915228
2.9880424,0.0091198185
2.9900094,0.0091415228
2.9919145,0.0091557846
2.9937597,0.0091617275
2.9955467,0.0091584456
2.9972775,0.0091449962
2.9989538,0.0091203973
3.0005773,0.0090836231
3.0021497,0.0090335955
3.0036726,0.0089691776
3.0051476,0.0088891676
3.0065761,0.0087922933
3.0079597,0.0086772091
3.0092997,0.008542495
3.0105976,0.0083866601
3.0118546,0.0082081476
3.013072,0.0080053439
3.0142511,0.0077766218
3.015393,0.0075204049
3.0164991,0.0072352356
3.0175703,0.0069198726
3.0186078,0.0065734224
3.0196126,0.0061955074
3.0205858,0.0057864589
3.0215284,0.0053474701
3.0224413,0.0048800793
3.0233255,0.004386906
3.0241818,0.0038737711
3.0250112,0.003350311
3.0258144,0.002829494
3.0265924,0.0023267341
3.0273459,0.0018582092
3.0280757,0.0014384451
3.0287825,0.0010778402
3.0294671,0.00078104284
3.0301301,0.00054679617
3.0307722,0.00036916677
3.0313942,0.00023948442
3.0319965,0.00014822957
3.0325799,8.6411413e-05
3.033145,4.6343002e-05
3.0336922,2.191483e-05
3.0342222,8.4900089e-06
3.0347356,2.5456658e-06
3.0352328,1.9392318e-06
3.035714,1.3312075e-09
