/*--------------------------------*- C++ -*----------------------------------*\
| =========                 |                                                 |
| \\      /  F ield         | OpenFOAM: The Open Source CFD Toolbox           |
|  \\    /   O peration     | Version:  2.4.0                                 |
|   \\  /    A nd           | Web:      www.OpenFOAM.org                      |
|    \\/     M anipulation  |                                                 |
\*---------------------------------------------------------------------------*/
FoamFile
{
    version     2.0;
    format      ascii;
    class       volSymmTensorField;
    location    "40";
    object      R;
}
// * * * * * * * * * * * * * * * * * * * * * * * * * * * * * * * * * * * * * //

dimensions      [0 2 -2 0 0 0 0];

internalField   nonuniform List<symmTensor> 
32000
(
(0.027284742 -9.446227e-06 -2.9162832e-25 0.027284559 -4.0266863e-24 0.027284647)
(0.0088225859 7.9910825e-07 4.9669603e-22 0.0088225785 -9.8525871e-25 0.0088225813)
(0.022700258 -6.9015202e-06 -4.2925365e-21 0.022701056 1.0349886e-22 0.022700656)
(0.0082945653 5.0885907e-08 1.5554171e-23 0.0082945395 -6.4658801e-24 0.0082945527)
(0.0062028398 1.2389416e-08 3.5255976e-24 0.0062028307 -2.8477426e-24 0.0062028351)
(0.00036211359 2.7408697e-08 9.5221061e-24 0.00036208458 -8.1358518e-25 0.00036209908)
(0.00084044064 2.2459182e-08 8.5673916e-24 0.00084040372 -1.4184508e-24 0.00084042213)
(7.8227787e-05 7.9981479e-09 -2.3059467e-25 7.8207969e-05 -5.2146214e-25 7.8217873e-05)
(0.00023035219 5.2785404e-09 2.8044103e-24 0.00023033387 -7.02247e-25 0.00023034302)
(0.00012757721 3.0716621e-09 1.4481028e-24 0.00012756284 -1.3827752e-24 0.00012757002)
(0.00012797495 1.9202394e-09 1.7340356e-25 0.00012796327 2.9265359e-25 0.0001279691)
(0.00010358142 1.218581e-09 1.2668673e-25 0.00010357203 1.6255873e-25 0.00010357672)
(9.2634123e-05 7.5612128e-10 5.5076689e-25 9.262699e-05 6.7008401e-25 9.2630553e-05)
(8.1832827e-05 4.7557077e-10 -2.2824977e-25 8.1827549e-05 -2.7480051e-25 8.1830187e-05)
(7.4009344e-05 2.8607926e-10 -1.6123571e-25 7.4005817e-05 -1.9416028e-25 7.400758e-05)
(6.7685791e-05 1.6426616e-10 2.260405e-25 6.76837e-05 2.6771867e-25 6.7684747e-05)
(6.2859315e-05 7.5073273e-11 6.5536151e-25 6.2858415e-05 4.2885926e-25 6.2858867e-05)
(5.9403455e-05 -3.9899587e-12 1.2276307e-25 5.9403536e-05 1.7123737e-25 5.9403498e-05)
(5.681307e-05 -9.1584032e-11 2.3408156e-25 5.6814064e-05 4.6855232e-25 5.681357e-05)
(5.465753e-05 -1.7755657e-10 1.016504e-25 5.4659285e-05 4.6269274e-25 5.4658411e-05)
(5.2732927e-05 -2.5975328e-10 4.3204392e-25 5.2735324e-05 5.4143731e-25 5.2734129e-05)
(5.0968261e-05 -3.3245052e-10 -2.7431948e-25 5.097116e-05 -3.415902e-25 5.0969715e-05)
(4.9281393e-05 -3.9493955e-10 6.6744679e-26 4.9284684e-05 6.4553569e-26 4.9283043e-05)
(4.7635107e-05 -4.4417345e-10 1.5912361e-25 4.7638674e-05 1.8837301e-25 4.7636895e-05)
(4.5967073e-05 -4.7811936e-10 2.1260543e-25 4.5970806e-05 2.7288273e-25 4.5968944e-05)
(4.4251138e-05 -4.9854097e-10 -1.4635633e-25 4.4254951e-05 -2.048907e-25 4.4253049e-05)
(4.2382189e-05 -5.0525067e-10 -3.2360829e-25 4.2386e-05 -4.2055755e-25 4.2384099e-05)
(4.0375784e-05 -5.0896986e-10 -3.4438937e-25 4.037954e-05 -4.4119134e-25 4.0377666e-05)
(3.8371294e-05 -5.1841966e-10 8.6570459e-26 3.8374963e-05 1.1654388e-25 3.8373133e-05)
(3.6452034e-05 -5.3673964e-10 -7.0285644e-26 3.6455608e-05 -1.0911377e-25 3.6453825e-05)
(3.4638951e-05 -5.6436216e-10 -7.4857702e-26 3.4642424e-05 -1.179337e-25 3.4640691e-05)
(3.2939038e-05 -6.021604e-10 1.059055e-25 3.2942408e-05 1.4638681e-25 3.2940727e-05)
(3.1359702e-05 -6.5122037e-10 8.6404537e-26 3.136297e-05 1.3869651e-25 3.136134e-05)
(2.9906738e-05 -7.1376121e-10 -1.0947422e-26 2.9909905e-05 2.7498158e-27 2.9908325e-05)
(2.860228e-05 -7.9359467e-10 -6.4289362e-25 2.8605354e-05 3.8873026e-26 2.8603821e-05)
(2.7505043e-05 -8.9783262e-10 -6.258531e-25 2.750804e-05 6.8872502e-26 2.7506545e-05)
(2.6666181e-05 -1.0313844e-09 -4.1683194e-25 2.6669125e-05 4.1056334e-25 2.6667657e-05)
(2.6027032e-05 -1.1988104e-09 -5.4294439e-25 2.6029953e-05 2.4265677e-25 2.6028496e-05)
(2.5526133e-05 -1.4054511e-09 8.7184526e-26 2.5529042e-05 2.1356468e-25 2.5527591e-05)
(2.5158024e-05 -1.660817e-09 -4.3263247e-26 2.5160919e-05 -1.1628335e-25 2.5159475e-05)
(2.4943169e-05 -1.9568576e-09 1.2136619e-26 2.4946e-05 3.7701541e-26 2.4944588e-05)
(2.4911155e-05 -2.2837236e-09 1.1742143e-26 2.4913834e-05 4.2126427e-26 2.4912497e-05)
(2.5110013e-05 -2.58398e-09 -2.2895722e-27 2.5112385e-05 -4.4299739e-26 2.5111201e-05)
(2.5597129e-05 -2.8148247e-09 -6.0188814e-27 2.559903e-05 -9.4726695e-27 2.5598081e-05)
(2.6508398e-05 -2.8810944e-09 -3.3328349e-27 2.6509672e-05 -5.893616e-26 2.6509036e-05)
(2.801777e-05 -2.8476334e-09 -2.0279032e-24 2.8018384e-05 1.08898e-25 2.8018077e-05)
(3.1255521e-05 -2.7590301e-09 -1.9620731e-24 3.1255585e-05 1.3960396e-26 3.1255553e-05)
(3.5049013e-05 -2.7854829e-09 -3.5116052e-29 3.504901e-05 -7.3024831e-30 3.5049011e-05)
(3.7558283e-05 -2.779486e-09 -1.4113576e-31 3.7558276e-05 4.5251124e-29 3.7558279e-05)
(3.9675041e-05 -2.4935105e-09 -3.8166959e-31 3.9675027e-05 -5.2707206e-29 3.9675033e-05)
(4.1483985e-05 -2.0272345e-09 4.6852292e-31 4.1483963e-05 2.1412837e-29 4.1483973e-05)
(4.3094844e-05 -1.2470962e-09 -7.3590645e-31 4.3094813e-05 2.5266119e-29 4.3094828e-05)
(4.4539135e-05 -2.6609835e-10 3.7831465e-31 4.4539096e-05 -4.5334769e-29 4.4539115e-05)
(4.5849267e-05 9.1880775e-10 3.9668685e-31 4.5849221e-05 1.6012086e-29 4.5849244e-05)
(4.7044317e-05 2.2408322e-09 -2.2477181e-31 4.7044267e-05 1.5618142e-30 4.7044293e-05)
(4.8140087e-05 3.6683401e-09 -2.3595111e-31 4.8140034e-05 1.2316925e-29 4.8140061e-05)
(4.9148599e-05 5.1460978e-09 3.6559851e-24 4.9148545e-05 -1.0007159e-26 4.9148573e-05)
(5.0079717e-05 6.6341693e-09 4.7166927e-24 5.0079662e-05 -1.0082351e-26 5.0079691e-05)
(5.0941469e-05 8.0930234e-09 -2.8735297e-24 5.0941416e-05 4.9568184e-27 5.0941444e-05)
(5.1740694e-05 9.4917857e-09 -3.3726436e-24 5.1740643e-05 4.8655808e-27 5.1740671e-05)
(5.2483293e-05 1.0804139e-08 -7.6755743e-24 5.2483245e-05 9.2323755e-27 5.2483271e-05)
(5.31743e-05 1.2008977e-08 -8.5375561e-24 5.3174256e-05 8.5636609e-27 5.317428e-05)
(5.3818115e-05 1.3088407e-08 1.150632e-31 5.3818076e-05 5.5474936e-30 5.3818098e-05)
(5.4418639e-05 1.4028383e-08 -2.4832406e-33 5.4418604e-05 -8.8496708e-30 5.4418624e-05)
(5.49793e-05 1.4818953e-08 -1.4167217e-31 5.4979271e-05 1.4470547e-29 5.4979288e-05)
(5.5503142e-05 1.5452944e-08 8.2221389e-31 5.5503118e-05 -1.3781745e-29 5.5503133e-05)
(5.5992933e-05 1.5924796e-08 -2.1047206e-31 5.5992916e-05 -1.9181832e-30 5.5992927e-05)
(5.6451132e-05 1.6230271e-08 5.7629818e-24 5.645112e-05 -1.4976428e-27 5.6451129e-05)
(5.6879932e-05 1.636461e-08 1.1629826e-23 5.6879927e-05 -1.8005637e-27 5.6879932e-05)
(5.7281349e-05 1.6319088e-08 5.8028591e-24 5.728135e-05 -2.9516543e-28 5.7281352e-05)
(5.7657204e-05 1.6087185e-08 -8.1900909e-32 5.7657213e-05 -2.0018726e-29 5.7657211e-05)
(5.8009197e-05 1.5662264e-08 3.8771215e-31 5.8009213e-05 1.8736498e-29 5.8009207e-05)
(5.8338799e-05 1.5036278e-08 1.7948629e-32 5.8338823e-05 -1.7505922e-29 5.8338813e-05)
(5.8647437e-05 1.419903e-08 3.3403029e-31 5.864747e-05 1.0459057e-29 5.8647455e-05)
(5.8936364e-05 1.313955e-08 -5.3326918e-31 5.8936406e-05 -8.2000785e-30 5.8936386e-05)
(5.9206731e-05 1.1845342e-08 -4.0094387e-31 5.9206782e-05 -2.7581892e-32 5.9206757e-05)
(5.9459768e-05 1.0309372e-08 -3.6608178e-24 5.945983e-05 -5.3753899e-27 5.9459799e-05)
(5.969635e-05 8.5334854e-09 -3.0315322e-24 5.9696421e-05 -6.3172862e-27 5.9696385e-05)
(5.9917762e-05 6.5499975e-09 8.2086158e-32 5.9917839e-05 6.2011361e-31 5.99178e-05)
(6.012455e-05 4.5093311e-09 1.9368449e-31 6.0124628e-05 1.5658915e-30 6.0124588e-05)
(6.0318005e-05 2.4594817e-09 -4.4196824e-32 6.0318086e-05 -1.2328598e-30 6.0318044e-05)
(6.0498073e-05 2.8270697e-10 1.0029969e-25 6.049816e-05 7.977225e-27 6.0498115e-05)
(6.0664569e-05 -1.9843713e-09 -7.0497888e-25 6.0664658e-05 8.3149639e-27 6.0664611e-05)
(6.0818722e-05 -4.2675378e-09 1.0630751e-31 6.0818811e-05 5.2265296e-31 6.0818764e-05)
(6.0960921e-05 -6.4842404e-09 -7.5746175e-32 6.0961006e-05 1.1947429e-30 6.0960961e-05)
(6.1092025e-05 -8.5054493e-09 -2.103646e-31 6.1092101e-05 -4.2326323e-30 6.1092061e-05)
(6.1212423e-05 -1.0203316e-08 1.7032503e-31 6.1212483e-05 -6.6566711e-31 6.1212451e-05)
(6.1323119e-05 -1.146703e-08 9.4165095e-32 6.1323162e-05 2.0732893e-30 6.1323139e-05)
(6.1421382e-05 -1.2230491e-08 -1.3701182e-31 6.1421404e-05 1.0114837e-30 6.1421392e-05)
(6.1513717e-05 -1.2489962e-08 -4.1510835e-32 6.151372e-05 -4.2728748e-30 6.1513718e-05)
(6.1595284e-05 -1.2287696e-08 -4.882292e-32 6.159527e-05 2.8140067e-30 6.1595277e-05)
(6.166786e-05 -1.1713156e-08 -4.1635279e-24 6.1667833e-05 -2.4536281e-27 6.1667847e-05)
(6.1731724e-05 -1.0895552e-08 -3.8734792e-24 6.173169e-05 -3.1590246e-27 6.1731707e-05)
(6.1787065e-05 -9.9636591e-09 1.7589639e-31 6.1787028e-05 -7.1756487e-31 6.1787047e-05)
(6.1834041e-05 -9.0146333e-09 -8.0362804e-32 6.1834005e-05 1.118753e-31 6.1834024e-05)
(6.1872837e-05 -8.0977636e-09 3.5848271e-32 6.1872801e-05 4.8965199e-32 6.187282e-05)
(6.1903551e-05 -7.2233789e-09 -2.5677243e-24 6.1903517e-05 -3.1709758e-27 6.1903535e-05)
(6.1926286e-05 -6.3873675e-09 -2.2706735e-24 6.1926253e-05 -3.0514514e-27 6.1926271e-05)
(6.1941118e-05 -5.5965669e-09 6.9090043e-33 6.1941088e-05 -1.2725137e-31 6.1941104e-05)
(6.1948033e-05 -4.8814051e-09 1.6740058e-33 6.1948006e-05 1.6407555e-32 6.1948021e-05)
(6.194698e-05 -4.2910244e-09 1.6290404e-33 6.1946959e-05 -4.4832385e-32 6.1946971e-05)
(6.1938361e-05 -3.8757666e-09 -1.5857977e-33 6.1938347e-05 -2.3825449e-32 6.1938355e-05)
(6.1921928e-05 -3.6727397e-09 1.3056429e-24 6.1921923e-05 4.7644372e-28 6.1921926e-05)
(6.1897431e-05 -3.6976576e-09 1.3144279e-24 6.1897435e-05 -3.8595048e-28 6.1897433e-05)
(6.1864944e-05 -3.9425887e-09 4.002039e-32 6.1864957e-05 -9.8538766e-32 6.186495e-05)
(6.1824361e-05 -4.3795083e-09 2.0453486e-33 6.1824381e-05 -4.5822434e-31 6.182437e-05)
(6.1775549e-05 -4.9608199e-09 -1.7620978e-24 6.1775574e-05 2.3365521e-27 6.1775561e-05)
(6.1718356e-05 -5.6262381e-09 1.9800691e-27 6.1718383e-05 -2.3155717e-30 6.1718369e-05)
(6.1652611e-05 -6.3094129e-09 2.2427286e-24 6.1652638e-05 -2.5318597e-27 6.1652623e-05)
(6.1578098e-05 -6.9469582e-09 -8.9349977e-32 6.1578122e-05 -1.2434906e-30 6.1578109e-05)
(6.1494566e-05 -7.4890203e-09 1.8957862e-31 6.1494586e-05 9.1811022e-31 6.1494575e-05)
(6.140176e-05 -7.910352e-09 -6.8516356e-32 6.1401775e-05 -1.4109161e-30 6.1401767e-05)
(6.1299371e-05 -8.2170747e-09 5.5713472e-32 6.1299382e-05 -4.7298755e-31 6.1299376e-05)
(6.1187052e-05 -8.4460313e-09 -2.5896291e-31 6.1187061e-05 9.7999953e-31 6.1187057e-05)
(6.1064447e-05 -8.6577997e-09 3.0088615e-31 6.1064456e-05 1.6991599e-30 6.1064451e-05)
(6.0931137e-05 -8.9132534e-09 -2.3232722e-31 6.0931149e-05 -1.0853559e-30 6.0931143e-05)
(6.0786676e-05 -9.2631515e-09 -8.0888781e-32 6.0786692e-05 -3.6335616e-31 6.0786684e-05)
(6.0630582e-05 -9.7212795e-09 1.7896176e-31 6.0630602e-05 2.4175894e-30 6.0630592e-05)
(6.0462302e-05 -1.0256726e-08 1.5212273e-31 6.0462324e-05 1.3577874e-30 6.0462313e-05)
(6.0281254e-05 -1.0815941e-08 -4.1774317e-31 6.0281276e-05 3.272397e-31 6.0281265e-05)
(6.0086812e-05 -1.1303396e-08 4.0155168e-24 6.0086829e-05 -1.4876192e-27 6.0086821e-05)
(5.9878263e-05 -1.1604959e-08 4.1210442e-24 5.987827e-05 -5.1963011e-28 5.9878267e-05)
(5.9654861e-05 -1.159399e-08 -4.1188498e-24 5.9654854e-05 -9.7481959e-28 5.9654859e-05)
(5.9415793e-05 -1.112503e-08 -3.9505618e-24 5.9415765e-05 -2.9588371e-27 5.9415781e-05)
(5.9160128e-05 -1.0101035e-08 -2.3792079e-31 5.9160078e-05 -3.862674e-30 5.9160107e-05)
(5.8886907e-05 -8.5355277e-09 3.0324818e-24 5.8886836e-05 7.1078229e-27 5.8886876e-05)
(5.8595076e-05 -6.5694633e-09 2.33283e-24 5.8594992e-05 8.4118204e-27 5.8595039e-05)
(5.8283444e-05 -4.4151269e-09 -3.1387778e-24 5.8283355e-05 -1.7867524e-26 5.8283405e-05)
(5.7950776e-05 -2.2633186e-09 -1.6081379e-24 5.7950688e-05 -1.7627067e-26 5.7950737e-05)
(5.7595692e-05 -2.2628984e-10 2.2158904e-31 5.7595608e-05 1.5207003e-30 5.7595655e-05)
(5.7216636e-05 1.6599462e-09 -5.9010623e-25 5.7216558e-05 7.7888453e-27 5.7216602e-05)
(5.6811987e-05 3.3956043e-09 -1.2067014e-24 5.6811915e-05 7.1724576e-27 5.6811955e-05)
(5.637994e-05 4.9824759e-09 2.2301675e-32 5.6379874e-05 1.7613755e-29 5.6379911e-05)
(5.5918432e-05 6.4258503e-09 -3.591334e-31 5.5918371e-05 -5.695237e-30 5.5918405e-05)
(5.5425282e-05 7.7324648e-09 -1.0760659e-24 5.5425227e-05 -3.7815813e-26 5.5425258e-05)
(5.4898038e-05 8.9099782e-09 -4.2598037e-24 5.4897988e-05 -6.0928858e-23 5.4898016e-05)
(5.4333937e-05 9.9652646e-09 -2.4795654e-24 5.4333892e-05 -6.1631602e-23 5.4333917e-05)
(5.3729965e-05 1.0904645e-08 2.1674846e-24 5.3729924e-05 8.1574305e-26 5.3729947e-05)
(5.3082684e-05 1.1733819e-08 1.0895278e-24 5.3082648e-05 6.1835994e-23 5.3082667e-05)
(5.2388217e-05 1.2457856e-08 -1.0757409e-24 5.2388185e-05 6.1376113e-23 5.2388202e-05)
(5.164218e-05 1.3081218e-08 -1.0668622e-24 5.1642151e-05 -4.2780379e-26 5.1642166e-05)
(5.0839554e-05 1.3608096e-08 -1.2591449e-30 5.0839528e-05 -2.7555111e-29 5.0839541e-05)
(4.9974514e-05 1.4042597e-08 7.3629773e-32 4.9974493e-05 -7.3256302e-30 4.9974503e-05)
(4.9040292e-05 1.4389042e-08 1.097526e-30 4.9040273e-05 1.8157807e-29 4.9040282e-05)
(4.8028795e-05 1.465217e-08 8.3859481e-31 4.8028779e-05 -8.7438822e-30 4.8028786e-05)
(4.6930226e-05 1.4836686e-08 -8.765889e-31 4.6930213e-05 2.4809167e-29 4.6930219e-05)
(4.5732722e-05 1.4947991e-08 7.7457108e-31 4.573271e-05 -3.5219677e-29 4.5732715e-05)
(4.4420508e-05 1.4988539e-08 -1.5752338e-30 4.4420499e-05 2.6655285e-29 4.4420502e-05)
(4.2974598e-05 1.4965719e-08 2.3928622e-31 4.297459e-05 -3.9805417e-29 4.2974592e-05)
(4.1362738e-05 1.4864506e-08 -4.2976017e-31 4.1362732e-05 1.3163415e-29 4.1362733e-05)
(3.9553591e-05 1.4706101e-08 2.0533522e-30 3.9553587e-05 6.5158506e-30 3.9553587e-05)
(3.7437288e-05 1.4343934e-08 -1.3438915e-30 3.7437288e-05 -1.3037061e-30 3.7437285e-05)
(3.4929422e-05 1.3829287e-08 -2.6510972e-29 3.492945e-05 2.6042167e-29 3.4929433e-05)
(3.1147755e-05 1.1629053e-08 -1.9563389e-27 3.1148125e-05 -1.3927502e-27 3.1147935e-05)
(2.7925652e-05 9.1129494e-09 6.4836692e-27 2.7927699e-05 -8.5035374e-26 2.7926675e-05)
(2.642904e-05 7.9366269e-09 2.3272664e-26 2.6432595e-05 -1.45151e-25 2.6430819e-05)
(2.5518358e-05 7.0366597e-09 -8.5948354e-27 2.5523127e-05 7.5562989e-26 2.5520745e-05)
(2.502515e-05 6.3797682e-09 1.3634563e-26 2.5031008e-05 -9.3447873e-26 2.5028083e-05)
(2.482926e-05 5.8433119e-09 7.9758996e-27 2.4836109e-05 -3.6658618e-26 2.4832689e-05)
(2.4851823e-05 5.3856108e-09 3.2069069e-26 2.4859594e-05 -1.5291747e-25 2.4855714e-05)
(2.5053715e-05 4.9681796e-09 -3.7092851e-27 2.5062361e-05 5.7892133e-26 2.5058045e-05)
(2.5424983e-05 4.5917088e-09 -2.7886467e-27 2.5434477e-05 4.2889892e-26 2.5429737e-05)
(2.5927052e-05 4.2349539e-09 6.4766521e-26 2.5937364e-05 -1.3049157e-25 2.5932216e-05)
(2.6571435e-05 3.8917686e-09 -2.0075071e-26 2.6582534e-05 -2.5735336e-27 2.6576994e-05)
(2.7403135e-05 3.5648262e-09 1.2569928e-25 2.7415015e-05 -1.7174509e-25 2.7409085e-05)
(2.8482055e-05 3.2887098e-09 -6.3537343e-26 2.8494788e-05 1.1378131e-25 2.8488433e-05)
(2.9782999e-05 3.0722117e-09 1.7097445e-26 2.9796631e-05 -4.4497376e-26 2.9789829e-05)
(3.1220271e-05 2.8882672e-09 -2.9028349e-27 3.1234757e-05 -1.2824444e-26 3.1227529e-05)
(3.2780249e-05 2.7276284e-09 -1.529054e-26 3.279551e-05 -2.2636843e-26 3.2787897e-05)
(3.4457856e-05 2.5877111e-09 -2.5302379e-26 3.4473773e-05 -4.7283603e-26 3.4465834e-05)
(3.6244335e-05 2.4666831e-09 7.2839919e-27 3.6260752e-05 1.4225341e-26 3.6252565e-05)
(3.8136849e-05 2.3642408e-09 -3.3488864e-26 3.8153573e-05 -1.217522e-26 3.8145234e-05)
(4.0109987e-05 2.2780527e-09 -1.698373e-24 4.0126782e-05 -1.2694264e-24 4.0118409e-05)
(4.2087233e-05 2.1971719e-09 -1.7045815e-24 4.2103784e-05 -1.2287172e-24 4.2095534e-05)
(4.3921538e-05 2.0831805e-09 -3.4778955e-26 4.3937438e-05 3.2740235e-26 4.3929513e-05)
(4.5587682e-05 1.9110794e-09 5.2292752e-26 4.5602529e-05 -5.3455194e-26 4.559513e-05)
(4.716455e-05 1.6782501e-09 -2.7637974e-25 4.7178003e-05 3.1290592e-25 4.71713e-05)
(4.8789601e-05 1.4149505e-09 -1.1488425e-24 4.8801368e-05 -9.40631e-25 4.8795506e-05)
(5.0418203e-05 1.122309e-09 -1.3246479e-24 5.0427971e-05 -2.9049735e-25 5.0423107e-05)
(5.2123351e-05 8.0781259e-10 -1.4555531e-26 5.2130797e-05 -2.5065526e-27 5.2127091e-05)
(5.3974665e-05 4.6846286e-10 1.2308274e-25 5.3979326e-05 -1.4282493e-25 5.3977009e-05)
(5.6042454e-05 1.0578816e-10 -2.3486142e-25 5.6043702e-05 2.7476849e-25 5.6043087e-05)
(5.8520956e-05 -2.4979965e-10 9.1874152e-26 5.8518301e-05 -1.1717861e-25 5.8519633e-05)
(6.1849539e-05 -6.2184716e-10 -1.2053298e-25 6.1842068e-05 1.9125974e-25 6.18458e-05)
(6.6539263e-05 -1.1058838e-09 -3.3018611e-25 6.6525363e-05 3.6649589e-25 6.65323e-05)
(7.2589309e-05 -1.8705729e-09 2.2824267e-25 7.2566612e-05 -2.8568047e-25 7.2577933e-05)
(8.036231e-05 -3.2028355e-09 8.2192564e-26 8.0327372e-05 3.935482e-26 8.0344793e-05)
(8.9927187e-05 -5.627466e-09 -4.340792e-25 8.9874967e-05 4.2742778e-25 8.9901e-05)
(0.00010326044 -1.0193341e-08 4.3336169e-25 0.00010318322 -5.0504897e-25 0.00010322171)
(0.00011689458 -1.8732601e-08 -3.8090081e-25 0.00011678217 1.2020217e-25 0.00011683819)
(0.00014668568 -3.604702e-08 3.9079579e-25 0.00014651924 1.5082172e-25 0.00014660219)
(0.00014847487 -6.4822705e-08 -2.4606435e-25 0.00014825166 -5.3570964e-25 0.00014836291)
(0.00026019914 -1.3314791e-07 5.3594754e-23 0.000259871 2.4961355e-23 0.0002600346)
(9.5260326e-05 -1.5905782e-07 5.8553824e-23 9.4997768e-05 1.6914011e-23 9.5128733e-05)
(0.00082187476 -3.8667338e-07 1.3514354e-24 0.00082146752 -6.3638467e-24 0.0008216708)
(0.00035565349 -2.1812758e-07 -1.4995727e-26 0.00035551634 -1.2743367e-24 0.00035558488)
(0.0059174393 -9.2625574e-07 2.0097424e-25 0.0059171352 4.6890151e-24 0.0059172877)
(0.0087127468 -8.8942158e-07 -2.7654056e-25 0.0087126348 7.9211228e-25 0.0087126913)
(0.024069134 -3.9614458e-06 2.4631067e-21 0.024069061 1.2222206e-23 0.024069098)
(0.0090055437 1.1316702e-06 -7.0361616e-22 0.0090055135 2.7247998e-24 0.0090055307)
(0.0073580465 -4.4257022e-06 -8.3067296e-26 0.0073579627 -2.1804398e-24 0.0073580033)
(0.0034326794 4.3529148e-07 -4.3650546e-22 0.0034326551 5.3609597e-25 0.0034326655)
(0.006965057 -3.0318003e-06 5.4579656e-21 0.0069654246 -1.6156834e-22 0.0069652433)
(0.0033061643 2.6146373e-09 -6.1325364e-23 0.0033061272 2.4624435e-23 0.0033061457)
(0.0025901172 3.8350644e-09 -3.17953e-24 0.0025901077 8.976098e-24 0.0025901125)
(0.00016570387 2.6337922e-08 -9.0954062e-24 0.00016567529 1.1609606e-24 0.00016568961)
(0.00042547853 3.5770675e-08 -1.4298147e-23 0.00042541974 -3.994929e-25 0.00042544915)
(6.4221059e-05 1.7072556e-08 -5.9128438e-25 6.4178751e-05 -1.2320795e-24 6.4199924e-05)
(0.00013901995 9.6133526e-09 -6.5481294e-24 0.00013898659 -1.4930092e-24 0.00013900327)
(8.5376519e-05 5.9170137e-09 -2.6227036e-24 8.5348776e-05 2.857282e-24 8.536266e-05)
(8.3544903e-05 3.596628e-09 9.72234e-25 8.3522999e-05 1.2000492e-24 8.353396e-05)
(6.9184729e-05 2.2878173e-09 4.4060577e-25 6.9167118e-05 4.7859837e-25 6.9175933e-05)
(6.1901083e-05 1.4115422e-09 -3.3730222e-25 6.1887859e-05 -4.8111814e-25 6.1894478e-05)
(5.4879194e-05 8.8819028e-10 5.8782253e-24 5.4869508e-05 -3.644622e-24 5.4874357e-05)
(4.955211e-05 5.398559e-10 4.4188663e-24 4.9545704e-05 -1.775884e-24 4.9548911e-05)
(4.5144818e-05 3.1804459e-10 3.2685828e-25 4.5141047e-05 3.6258464e-25 4.5142935e-05)
(4.163961e-05 1.5923383e-10 -6.4529663e-25 4.1637968e-05 -1.9080792e-25 4.1638789e-05)
(3.8995941e-05 2.4760998e-11 -9.4617909e-25 3.8995993e-05 -1.1616161e-24 3.8995966e-05)
(3.6934997e-05 -1.1892678e-10 -2.6667278e-25 3.6936559e-05 -6.2006653e-25 3.6935776e-05)
(3.5190472e-05 -2.5513499e-10 5.3059392e-26 3.5193235e-05 -4.7518668e-25 3.5191851e-05)
(3.3628368e-05 -3.7998496e-10 -5.966858e-25 3.363209e-05 -6.9304158e-25 3.3630225e-05)
(3.2200078e-05 -4.8575742e-10 4.1515659e-25 3.2204506e-05 5.510628e-25 3.2202287e-05)
(3.0853245e-05 -5.7220596e-10 9.1011417e-25 3.0858183e-05 1.165078e-24 3.0855709e-05)
(2.9561812e-05 -6.3639145e-10 -3.5191223e-25 2.956707e-05 -4.3431215e-25 2.9564436e-05)
(2.828862e-05 -6.7633845e-10 -1.8433339e-25 2.829403e-05 -2.7742724e-25 2.829132e-05)
(2.7014647e-05 -6.9575085e-10 2.4924114e-25 2.702008e-05 3.3439533e-25 2.7017359e-05)
(2.567549e-05 -6.9538505e-10 2.5826589e-25 2.5680835e-05 3.6759834e-25 2.5678158e-05)
(2.4263845e-05 -6.9025349e-10 6.6681929e-26 2.4269028e-05 6.6833038e-26 2.4266432e-05)
(2.2848954e-05 -6.9184307e-10 -6.6174638e-26 2.2853932e-05 -1.1544668e-25 2.2851439e-05)
(2.1480332e-05 -7.0385063e-10 -4.1917652e-25 2.1485091e-05 -5.1519486e-25 2.1482708e-05)
(2.0172468e-05 -7.2628661e-10 -1.7288623e-25 2.0177001e-05 -2.0650484e-25 2.0174731e-05)
(1.8931131e-05 -7.5941643e-10 -1.5879534e-25 1.8935438e-05 -2.2549238e-25 1.8933281e-05)
(1.7761645e-05 -8.0362706e-10 -4.7285658e-25 1.7765727e-05 -6.8475505e-25 1.7763683e-05)
(1.6668018e-05 -8.6048429e-10 1.7948311e-26 1.6671881e-05 -7.787678e-27 1.6669946e-05)
(1.5662474e-05 -9.3305325e-10 9.207763e-25 1.5666129e-05 2.5944218e-25 1.5664299e-05)
(1.4777153e-05 -1.0278004e-09 4.5719343e-25 1.4780623e-05 -5.655525e-25 1.4778885e-05)
(1.4042962e-05 -1.148475e-09 6.6769778e-25 1.4046279e-05 -6.7770143e-26 1.4044617e-05)
(1.3437211e-05 -1.2990007e-09 3.1116921e-24 1.3440416e-05 -1.0233803e-24 1.343881e-05)
(1.2929939e-05 -1.4839453e-09 2.4118917e-24 1.2933051e-05 -1.4271557e-24 1.2931492e-05)
(1.2518076e-05 -1.7123606e-09 -2.6955626e-24 1.2521101e-05 1.5891777e-24 1.2519585e-05)
(1.2210649e-05 -1.9755625e-09 -3.2496487e-24 1.2213545e-05 8.975764e-25 1.2212094e-05)
(1.2020718e-05 -2.2648411e-09 7.4135831e-27 1.2023409e-05 5.5910076e-26 1.2022061e-05)
(1.1969897e-05 -2.526397e-09 -3.7967614e-24 1.1972239e-05 8.5311032e-25 1.1971066e-05)
(1.2086407e-05 -2.7230133e-09 -4.0131666e-24 1.2088256e-05 5.6919721e-25 1.208733e-05)
(1.2432956e-05 -2.7675968e-09 6.1845185e-27 1.2434176e-05 1.5936275e-25 1.2433565e-05)
(1.3101052e-05 -2.7200276e-09 1.9621309e-24 1.3101624e-05 -1.4536288e-25 1.3101338e-05)
(1.4577439e-05 -2.608193e-09 1.8765069e-24 1.4577481e-05 -1.0111312e-26 1.4577461e-05)
(1.6296665e-05 -2.5726811e-09 -7.5976863e-30 1.6296647e-05 -2.7406367e-29 1.6296657e-05)
(1.7449551e-05 -2.4945897e-09 -2.6399576e-32 1.7449521e-05 -7.0825182e-30 1.7449537e-05)
(1.8413373e-05 -2.1472229e-09 -1.0279128e-30 1.8413321e-05 3.1892169e-29 1.8413348e-05)
(1.9237773e-05 -1.6250121e-09 1.6430313e-30 1.9237697e-05 -9.5161807e-30 1.9237735e-05)
(1.9970361e-05 -8.1796708e-10 7.0168339e-25 1.997026e-05 1.1554713e-26 1.9970311e-05)
(2.0626851e-05 1.6274325e-10 2.9467962e-26 2.0626732e-05 1.3843165e-26 2.0626792e-05)
(2.1221812e-05 1.3113074e-09 6.4949481e-31 2.1221678e-05 3.2191202e-29 2.1221745e-05)
(2.1764175e-05 2.5674855e-09 3.2394554e-32 2.1764031e-05 -3.3047218e-29 2.1764103e-05)
(2.2261175e-05 3.8996263e-09 -4.8501401e-31 2.2261025e-05 -2.088816e-29 2.22611e-05)
(2.2718355e-05 5.2579117e-09 -3.3648764e-24 2.2718205e-05 9.2281802e-27 2.271828e-05)
(2.3140243e-05 6.6066635e-09 -4.3197349e-24 2.3140096e-05 9.2512599e-27 2.3140169e-05)
(2.3530531e-05 7.9118337e-09 2.6364146e-24 2.3530392e-05 -4.6021173e-27 2.3530461e-05)
(2.389236e-05 9.1473783e-09 -9.5787983e-24 2.3892229e-05 2.7229212e-26 2.3892293e-05)
(2.4228425e-05 1.0291643e-08 -2.162475e-23 2.4228306e-05 4.9676414e-26 2.4228364e-05)
(2.4541038e-05 1.1327641e-08 -8.0609482e-24 2.4540932e-05 1.8272276e-26 2.4540983e-05)
(2.483221e-05 1.2241356e-08 2.5767096e-30 2.4832119e-05 -5.349007e-31 2.4832163e-05)
(2.5103723e-05 1.3022158e-08 -1.9125963e-31 2.5103648e-05 3.9401097e-30 2.5103683e-05)
(2.5357143e-05 1.3662844e-08 6.4685858e-31 2.5357084e-05 8.892764e-30 2.5357112e-05)
(2.5593865e-05 1.4158493e-08 -1.2606639e-32 2.5593822e-05 -2.843165e-29 2.5593841e-05)
(2.5815143e-05 1.4505476e-08 1.8830511e-31 2.5815117e-05 3.5789631e-29 2.5815128e-05)
(2.6022107e-05 1.4701166e-08 -5.2489707e-24 2.6022099e-05 1.3203151e-27 2.6022101e-05)
(2.6215752e-05 1.474192e-08 -4.212636e-23 2.6215762e-05 4.147776e-28 2.6215755e-05)
(2.6396998e-05 1.4619706e-08 -3.6669276e-23 2.6397026e-05 -7.5842834e-27 2.639701e-05)
(2.6566671e-05 1.4329903e-08 -8.4432344e-31 2.6566718e-05 -1.2359586e-29 2.6566693e-05)
(2.6725543e-05 1.3867255e-08 1.1996062e-30 2.672561e-05 4.4320314e-30 2.6725575e-05)
(2.6874286e-05 1.3225318e-08 -1.7345316e-30 2.6874374e-05 -5.3195119e-31 2.6874328e-05)
(2.7013549e-05 1.2396029e-08 4.7082317e-31 2.7013658e-05 5.5200601e-30 2.7013602e-05)
(2.7143906e-05 1.1371004e-08 1.5025442e-30 2.7144039e-05 -3.9991851e-30 2.7143971e-05)
(2.7265893e-05 1.0141386e-08 -8.846714e-31 2.7266049e-05 -1.5485005e-30 2.726597e-05)
(2.7380068e-05 8.7043073e-09 3.3261512e-24 2.7380248e-05 4.889087e-27 2.7380157e-05)
(2.7486865e-05 7.0656287e-09 2.7487047e-24 2.7487066e-05 5.7291033e-27 2.7486965e-05)
(2.7586865e-05 5.2628235e-09 1.9582203e-31 2.7587079e-05 2.6335672e-31 2.7586972e-05)
(2.7680357e-05 3.4138928e-09 4.3701517e-31 2.7680573e-05 2.0595008e-30 2.7680465e-05)
(2.7767852e-05 1.5455062e-09 -1.0538077e-31 2.7768073e-05 -4.7401867e-30 2.7767963e-05)
(2.7849305e-05 -4.1902332e-10 -9.0683744e-26 2.7849537e-05 -7.232209e-27 2.7849422e-05)
(2.7924619e-05 -2.433074e-09 6.3816595e-25 2.7924855e-05 -7.5212672e-27 2.7924738e-05)
(2.7994277e-05 -4.4405544e-09 -1.0476218e-31 2.7994508e-05 4.2262957e-30 2.7994394e-05)
(2.8058492e-05 -6.3655936e-09 1.3027091e-23 2.8058708e-05 -7.8588457e-26 2.8058601e-05)
(2.8117649e-05 -8.0980463e-09 1.6818161e-23 2.8117838e-05 -6.8821025e-26 2.8117745e-05)
(2.8171955e-05 -9.5310903e-09 8.4831516e-31 2.8172104e-05 -1.966469e-30 2.8172031e-05)
(2.8223422e-05 -1.0575224e-08 -7.5571377e-31 2.8223522e-05 -2.0800006e-30 2.8223473e-05)
(2.8263742e-05 -1.1175753e-08 1.5755198e-23 2.8263791e-05 -1.2310561e-26 2.8263767e-05)
(2.8307806e-05 -1.1348209e-08 1.604414e-23 2.8307806e-05 -3.5335396e-28 2.8307807e-05)
(2.8344578e-05 -1.1120423e-08 5.309436e-31 2.8344535e-05 1.3991584e-30 2.8344557e-05)
(2.8377294e-05 -1.0573591e-08 3.7417097e-24 2.837722e-05 2.203391e-27 2.8377257e-05)
(2.8406078e-05 -9.818909e-09 3.4778906e-24 2.8405987e-05 2.8361453e-27 2.8406032e-05)
(2.8431019e-05 -8.9671234e-09 9.7067729e-32 2.8430921e-05 7.8356499e-31 2.8430969e-05)
(2.845219e-05 -8.1020735e-09 -1.4035895e-32 2.8452093e-05 -9.8956018e-32 2.8452141e-05)
(2.8469674e-05 -7.2676377e-09 7.9961583e-32 2.8469581e-05 -1.5973922e-31 2.8469627e-05)
(2.8483518e-05 -6.4759842e-09 2.307215e-24 2.848343e-05 2.8492293e-27 2.8483473e-05)
(2.849377e-05 -5.728266e-09 2.0404363e-24 2.8493686e-05 2.7420962e-27 2.8493727e-05)
(2.8500461e-05 -5.0350902e-09 -3.7744831e-32 2.8500384e-05 6.3428772e-32 2.8500422e-05)
(2.850335e-05 -4.4254677e-09 3.6053559e-33 2.8503284e-05 4.7559875e-32 2.8503317e-05)
(2.8502704e-05 -3.9415516e-09 -2.5457832e-33 2.8502654e-05 4.7785084e-32 2.8502679e-05)
(2.8499064e-05 -3.6237156e-09 -2.086736e-32 2.8499033e-05 1.5734004e-33 2.8499048e-05)
(2.8491849e-05 -3.4991223e-09 -1.1753607e-24 2.8491841e-05 -4.2866668e-28 2.8491845e-05)
(2.8480823e-05 -3.5754402e-09 1.2689571e-24 2.8480838e-05 -1.3144069e-27 2.8480831e-05)
(2.8466199e-05 -3.8396286e-09 2.6249655e-24 2.8466235e-05 -4.2193141e-27 2.8466217e-05)
(2.8447929e-05 -4.2626576e-09 5.4908532e-32 2.8447982e-05 -2.1466773e-31 2.8447956e-05)
(2.8425956e-05 -4.8002385e-09 1.5869998e-24 2.8426021e-05 -2.1041338e-27 2.8425989e-05)
(2.8400211e-05 -5.398957e-09 -7.3987989e-28 2.8400281e-05 9.9736706e-31 2.8400247e-05)
(2.8370615e-05 -6.0020628e-09 -2.0207497e-24 2.8370683e-05 2.2821276e-27 2.8370649e-05)
(2.8337072e-05 -6.5572158e-09 8.8725883e-32 2.8337133e-05 -6.2843475e-31 2.8337103e-05)
(2.8299467e-05 -7.0251165e-09 -2.4117116e-31 2.8299517e-05 1.2265709e-31 2.8299493e-05)
(2.8257683e-05 -7.3883201e-09 2.8371023e-31 2.8257722e-05 2.1786237e-31 2.8257703e-05)
(2.821158e-05 -7.655862e-09 7.7059489e-32 2.8211609e-05 4.0902295e-31 2.8211595e-05)
(2.8161e-05 -7.8615377e-09 7.5526461e-32 2.8161024e-05 5.5250806e-31 2.8161012e-05)
(2.810578e-05 -8.056643e-09 3.6498347e-31 2.8105806e-05 -6.9519613e-31 2.8105793e-05)
(2.8045734e-05 -8.2901518e-09 -7.4650468e-31 2.8045767e-05 5.2430197e-31 2.8045751e-05)
(2.7980657e-05 -8.5989985e-09 3.5403095e-32 2.7980701e-05 1.1679114e-31 2.7980679e-05)
(2.7910337e-05 -8.9870808e-09 -7.6342041e-31 2.791039e-05 -3.9528086e-30 2.7910363e-05)
(2.7834521e-05 -9.4205053e-09 -3.3561284e-32 2.783458e-05 -9.196518e-31 2.7834551e-05)
(2.7752952e-05 -9.8452043e-09 9.8427201e-31 2.7753007e-05 7.9845251e-30 2.7752979e-05)
(2.7665343e-05 -1.0173365e-08 -3.6099579e-24 2.7665386e-05 1.3323035e-27 2.7665364e-05)
(2.7571375e-05 -1.0302445e-08 -3.7097332e-24 2.7571392e-05 4.7543431e-28 2.7571383e-05)
(2.7470709e-05 -1.0120898e-08 3.7009717e-24 2.7470687e-05 8.5768344e-28 2.7470697e-05)
(2.7362976e-05 -9.5100835e-09 3.5561461e-24 2.7362903e-05 2.6608951e-27 2.7362937e-05)
(2.7247753e-05 -8.4048703e-09 -4.7063337e-31 2.7247624e-05 2.8916311e-30 2.7247685e-05)
(2.7124597e-05 -6.8407673e-09 -2.72727e-24 2.7124421e-05 -6.375873e-27 2.7124505e-05)
(2.6993028e-05 -4.9602799e-09 -2.1039895e-24 2.6992821e-05 -7.5865388e-27 2.6992921e-05)
(2.6852504e-05 -2.9567889e-09 2.8280026e-24 2.6852288e-05 1.6102684e-26 2.6852392e-05)
(2.6702464e-05 -9.9351139e-10 1.4538224e-24 2.6702253e-05 1.592032e-26 2.6702355e-05)
(2.6542288e-05 8.4010466e-10 2.0084386e-32 2.654209e-05 -1.4708615e-29 2.6542185e-05)
(2.6371272e-05 2.5236435e-09 3.3921389e-24 2.6371088e-05 -5.2451372e-26 2.6371177e-05)
(2.6188677e-05 4.0656964e-09 6.1627348e-24 2.6188507e-05 -4.8436927e-26 2.6188589e-05)
(2.5993682e-05 5.4701166e-09 4.0292573e-31 2.5993526e-05 -8.3798598e-29 2.5993601e-05)
(2.5785355e-05 6.7434064e-09 -1.4719584e-30 2.5785212e-05 7.6474817e-29 2.5785281e-05)
(2.55627e-05 7.8928267e-09 8.5500869e-31 2.5562569e-05 -3.0917279e-29 2.5562632e-05)