/*--------------------------------*- C++ -*----------------------------------*\
  =========                 |
  \\      /  F ield         | OpenFOAM: The Open Source CFD Toolbox
   \\    /   O peration     | Website:  https://openfoam.org
    \\  /    A nd           | Version:  7
     \\/     M anipulation  |
\*---------------------------------------------------------------------------*/
FoamFile
{
    version     2.0;
    format      ascii;
    class       volScalarField;
    location    "10000";
    object      p;
}
// * * * * * * * * * * * * * * * * * * * * * * * * * * * * * * * * * * * * * //

dimensions      [0 2 -2 0 0 0 0];

internalField   nonuniform List<scalar> 
14751
(
-1.14782e-11
2.42179e-06
5.43418e-06
8.27753e-06
1.13196e-05
1.43856e-05
1.74483e-05
2.05167e-05
2.35338e-05
2.64853e-05
2.93396e-05
3.20838e-05
3.46906e-05
3.71459e-05
3.94402e-05
4.15533e-05
4.34912e-05
4.5235e-05
4.6793e-05
4.81549e-05
4.93282e-05
5.03113e-05
5.111e-05
5.1725e-05
5.21644e-05
5.24324e-05
5.25352e-05
5.248e-05
5.22723e-05
5.19195e-05
5.14284e-05
5.08055e-05
5.0058e-05
4.91922e-05
4.82146e-05
4.71329e-05
4.59518e-05
4.46785e-05
4.33184e-05
4.18794e-05
4.03657e-05
3.87836e-05
3.71396e-05
3.54375e-05
3.36846e-05
3.18852e-05
3.00442e-05
2.81678e-05
2.62618e-05
2.43325e-05
2.23849e-05
2.04236e-05
1.84551e-05
1.64841e-05
1.45158e-05
1.25559e-05
1.06089e-05
8.68065e-06
6.77616e-06
4.8987e-06
3.05566e-06
1.24965e-06
-5.13957e-07
-2.22929e-06
-3.89439e-06
-5.50381e-06
-7.05449e-06
-8.54103e-06
-9.96163e-06
-1.1312e-05
-1.25888e-05
-1.37897e-05
-1.49106e-05
-1.59495e-05
-1.69032e-05
-1.77689e-05
-1.85429e-05
-1.92237e-05
-1.98044e-05
-2.02881e-05
-2.06602e-05
-2.0928e-05
-2.1077e-05
-2.11075e-05
-2.1011e-05
-2.07822e-05
-2.04117e-05
-1.98955e-05
-1.92227e-05
-1.83912e-05
-1.73816e-05
-1.62018e-05
-1.48418e-05
-1.32788e-05
-1.15597e-05
-9.61697e-06
-7.49239e-06
-5.19295e-06
-2.9909e-06
-4.97321e-10
2.42145e-06
5.43367e-06
8.27694e-06
1.13189e-05
1.43848e-05
1.74475e-05
2.05158e-05
2.35328e-05
2.64843e-05
2.93386e-05
3.20827e-05
3.46895e-05
3.71447e-05
3.9439e-05
4.15521e-05
4.34899e-05
4.52336e-05
4.67916e-05
4.81534e-05
4.93267e-05
5.03098e-05
5.11085e-05
5.17235e-05
5.21629e-05
5.2431e-05
5.25339e-05
5.24787e-05
5.22711e-05
5.19183e-05
5.14273e-05
5.08045e-05
5.00571e-05
4.91914e-05
4.82139e-05
4.71323e-05
4.59512e-05
4.46781e-05
4.33181e-05
4.18792e-05
4.03655e-05
3.87836e-05
3.71397e-05
3.54376e-05
3.36848e-05
3.18854e-05
3.00445e-05
2.81683e-05
2.62624e-05
2.43331e-05
2.23855e-05
2.04243e-05
1.8456e-05
1.6485e-05
1.45168e-05
1.25569e-05
1.061e-05
8.68177e-06
6.77733e-06
4.89992e-06
3.05693e-06
1.25097e-06
-5.12604e-07
-2.2279e-06
-3.89297e-06
-5.50236e-06
-7.05301e-06
-8.53953e-06
-9.96011e-06
-1.13105e-05
-1.25873e-05
-1.37881e-05
-1.49091e-05
-1.59479e-05
-1.69017e-05
-1.77674e-05
-1.85414e-05
-1.92223e-05
-1.9803e-05
-2.02866e-05
-2.06588e-05
-2.09267e-05
-2.10757e-05
-2.11063e-05
-2.10098e-05
-2.07811e-05
-2.04107e-05
-1.98945e-05
-1.92218e-05
-1.83904e-05
-1.73809e-05
-1.62012e-05
-1.48413e-05
-1.32783e-05
-1.15594e-05
-9.61681e-06
-7.49239e-06
-5.19294e-06
-2.99097e-06
-7.35171e-10
2.42039e-06
5.43255e-06
8.27536e-06
1.13171e-05
1.43831e-05
1.74458e-05
2.05143e-05
2.35316e-05
2.64832e-05
2.93376e-05
3.20818e-05
3.46887e-05
3.7144e-05
3.94383e-05
4.15514e-05
4.34891e-05
4.52327e-05
4.67906e-05
4.81523e-05
4.93254e-05
5.03085e-05
5.1107e-05
5.1722e-05
5.21614e-05
5.24295e-05
5.25324e-05
5.24773e-05
5.22698e-05
5.19171e-05
5.14261e-05
5.08035e-05
5.00561e-05
4.91905e-05
4.82131e-05
4.71316e-05
4.59507e-05
4.46777e-05
4.33178e-05
4.1879e-05
4.03655e-05
3.87836e-05
3.71398e-05
3.54379e-05
3.36852e-05
3.18859e-05
3.00451e-05
2.8169e-05
2.62631e-05
2.4334e-05
2.23865e-05
2.04254e-05
1.84571e-05
1.64862e-05
1.45181e-05
1.25583e-05
1.06115e-05
8.68334e-06
6.77897e-06
4.90162e-06
3.05869e-06
1.25278e-06
-5.10742e-07
-2.22599e-06
-3.89103e-06
-5.50038e-06
-7.051e-06
-8.53749e-06
-9.95806e-06
-1.13084e-05
-1.25852e-05
-1.37861e-05
-1.4907e-05
-1.59459e-05
-1.68997e-05
-1.77654e-05
-1.85394e-05
-1.92203e-05
-1.98011e-05
-2.02848e-05
-2.06571e-05
-2.09251e-05
-2.10743e-05
-2.1105e-05
-2.10086e-05
-2.078e-05
-2.04098e-05
-1.98937e-05
-1.92211e-05
-1.83898e-05
-1.73804e-05
-1.62006e-05
-1.48408e-05
-1.32777e-05
-1.15589e-05
-9.61655e-06
-7.49238e-06
-5.19272e-06
-2.99207e-06
-9.9582e-10
2.41852e-06
5.43063e-06
8.27284e-06
1.13142e-05
1.43804e-05
1.74434e-05
2.05123e-05
2.35299e-05
2.64819e-05
2.93366e-05
3.20811e-05
3.46882e-05
3.71436e-05
3.94381e-05
4.15512e-05
4.34889e-05
4.52323e-05
4.679e-05
4.81514e-05
4.93244e-05
5.03072e-05
5.11057e-05
5.17206e-05
5.21599e-05
5.2428e-05
5.25309e-05
5.24758e-05
5.22684e-05
5.19157e-05
5.14249e-05
5.08023e-05
5.00552e-05
4.91897e-05
4.82124e-05
4.71311e-05
4.59503e-05
4.46774e-05
4.33177e-05
4.18791e-05
4.03657e-05
3.8784e-05
3.71404e-05
3.54386e-05
3.3686e-05
3.18869e-05
3.00462e-05
2.81702e-05
2.62645e-05
2.43355e-05
2.23882e-05
2.04272e-05
1.8459e-05
1.64882e-05
1.45202e-05
1.25605e-05
1.06138e-05
8.68572e-06
6.78143e-06
4.90416e-06
3.06129e-06
1.25545e-06
-5.08024e-07
-2.22323e-06
-3.88823e-06
-5.49755e-06
-7.04815e-06
-8.53463e-06
-9.95519e-06
-1.13056e-05
-1.25824e-05
-1.37832e-05
-1.49042e-05
-1.59431e-05
-1.6897e-05
-1.77628e-05
-1.85369e-05
-1.92179e-05
-1.97987e-05
-2.02827e-05
-2.06551e-05
-2.09233e-05
-2.10727e-05
-2.11036e-05
-2.10075e-05
-2.07791e-05
-2.04091e-05
-1.98932e-05
-1.92207e-05
-1.83895e-05
-1.73802e-05
-1.62004e-05
-1.48406e-05
-1.32775e-05
-1.15589e-05
-9.61668e-06
-7.49277e-06
-5.19246e-06
-2.99474e-06
-1.94131e-09
2.41543e-06
5.42727e-06
8.26877e-06
1.13095e-05
1.4376e-05
1.74392e-05
2.05086e-05
2.35267e-05
2.64791e-05
2.93342e-05
3.2079e-05
3.46865e-05
3.71422e-05
3.94369e-05
4.155e-05
4.34876e-05
4.52309e-05
4.67884e-05
4.81496e-05
4.93223e-05
5.0305e-05
5.11033e-05
5.17181e-05
5.21575e-05
5.24256e-05
5.25286e-05
5.24736e-05
5.22663e-05
5.19138e-05
5.14232e-05
5.08009e-05
5.00539e-05
4.91887e-05
4.82116e-05
4.71306e-05
4.59501e-05
4.46775e-05
4.3318e-05
4.18797e-05
4.03665e-05
3.87851e-05
3.71417e-05
3.54402e-05
3.36879e-05
3.1889e-05
3.00486e-05
2.81727e-05
2.62673e-05
2.43384e-05
2.23913e-05
2.04305e-05
1.84625e-05
1.64919e-05
1.4524e-05
1.25644e-05
1.06178e-05
8.68988e-06
6.78568e-06
4.9085e-06
3.0657e-06
1.25992e-06
-5.03493e-07
-2.21867e-06
-3.88364e-06
-5.49294e-06
-7.04354e-06
-8.53003e-06
-9.9506e-06
-1.1301e-05
-1.25779e-05
-1.37788e-05
-1.48999e-05
-1.59388e-05
-1.68928e-05
-1.77587e-05
-1.85329e-05
-1.92141e-05
-1.97951e-05
-2.02793e-05
-2.0652e-05
-2.09205e-05
-2.10702e-05
-2.11015e-05
-2.10057e-05
-2.07777e-05
-2.0408e-05
-1.98924e-05
-1.92201e-05
-1.83893e-05
-1.73801e-05
-1.62004e-05
-1.48408e-05
-1.32775e-05
-1.15593e-05
-9.61745e-06
-7.49383e-06
-5.19233e-06
-2.9994e-06
-4.36599e-09
2.41041e-06
5.42158e-06
8.26224e-06
1.1302e-05
1.43687e-05
1.74321e-05
2.05019e-05
2.35207e-05
2.64736e-05
2.93292e-05
3.20744e-05
3.46823e-05
3.71384e-05
3.94334e-05
4.15466e-05
4.34844e-05
4.52276e-05
4.67849e-05
4.8146e-05
4.93185e-05
5.03011e-05
5.10994e-05
5.17143e-05
5.21538e-05
5.2422e-05
5.25253e-05
5.24706e-05
5.22636e-05
5.19114e-05
5.14211e-05
5.07992e-05
5.00526e-05
4.91878e-05
4.82112e-05
4.71306e-05
4.59505e-05
4.46783e-05
4.33193e-05
4.18814e-05
4.03686e-05
3.87877e-05
3.71446e-05
3.54434e-05
3.36914e-05
3.18929e-05
3.00529e-05
2.81775e-05
2.62724e-05
2.43438e-05
2.23969e-05
2.04363e-05
1.84685e-05
1.64981e-05
1.45303e-05
1.25709e-05
1.06244e-05
8.6966e-06
6.79247e-06
4.91538e-06
3.0726e-06
1.26687e-06
-4.96527e-07
-2.21173e-06
-3.87671e-06
-5.48605e-06
-7.03669e-06
-8.52326e-06
-9.94391e-06
-1.12944e-05
-1.25714e-05
-1.37724e-05
-1.48936e-05
-1.59327e-05
-1.68868e-05
-1.7753e-05
-1.85274e-05
-1.92088e-05
-1.979e-05
-2.02746e-05
-2.06476e-05
-2.09166e-05
-2.10668e-05
-2.10986e-05
-2.10034e-05
-2.07759e-05
-2.04066e-05
-1.98916e-05
-1.92197e-05
-1.83893e-05
-1.73805e-05
-1.62011e-05
-1.48418e-05
-1.32784e-05
-1.15609e-05
-9.61946e-06
-7.49616e-06
-5.19291e-06
-3.00658e-06
-9.17006e-09
2.40265e-06
5.41271e-06
8.25256e-06
1.12911e-05
1.43579e-05
1.74215e-05
2.04919e-05
2.35114e-05
2.6465e-05
2.93212e-05
3.2067e-05
3.46756e-05
3.71322e-05
3.94278e-05
4.15414e-05
4.34794e-05
4.52227e-05
4.678e-05
4.81411e-05
4.93137e-05
5.02964e-05
5.10948e-05
5.171e-05
5.21498e-05
5.24184e-05
5.25221e-05
5.24678e-05
5.22613e-05
5.19097e-05
5.14199e-05
5.07985e-05
5.00526e-05
4.91883e-05
4.82123e-05
4.71322e-05
4.59528e-05
4.46811e-05
4.33227e-05
4.18852e-05
4.0373e-05
3.87924e-05
3.71498e-05
3.5449e-05
3.36975e-05
3.18993e-05
3.00597e-05
2.81848e-05
2.628e-05
2.43517e-05
2.24051e-05
2.04447e-05
1.84771e-05
1.65068e-05
1.45392e-05
1.25799e-05
1.06334e-05
8.70565e-06
6.80152e-06
4.92446e-06
3.08163e-06
1.27587e-06
-4.87587e-07
-2.2029e-06
-3.86797e-06
-5.47743e-06
-7.02818e-06
-8.51492e-06
-9.93573e-06
-1.12864e-05
-1.25636e-05
-1.37648e-05
-1.48862e-05
-1.59255e-05
-1.68798e-05
-1.77463e-05
-1.85209e-05
-1.92028e-05
-1.97843e-05
-2.02694e-05
-2.06429e-05
-2.09124e-05
-2.10633e-05
-2.10957e-05
-2.10012e-05
-2.07745e-05
-2.04058e-05
-1.98915e-05
-1.92202e-05
-1.83905e-05
-1.73823e-05
-1.62031e-05
-1.48444e-05
-1.32811e-05
-1.15643e-05
-9.62351e-06
-7.50064e-06
-5.19536e-06
-3.01692e-06
-1.71237e-08
2.39161e-06
5.40013e-06
8.23929e-06
1.12765e-05
1.43434e-05
1.74074e-05
2.04785e-05
2.34989e-05
2.64534e-05
2.93106e-05
3.20573e-05
3.46669e-05
3.71245e-05
3.9421e-05
4.15352e-05
4.34737e-05
4.52173e-05
4.6775e-05
4.81363e-05
4.93091e-05
5.02921e-05
5.10909e-05
5.17066e-05
5.21469e-05
5.2416e-05
5.25203e-05
5.24667e-05
5.22609e-05
5.19099e-05
5.14208e-05
5.08001e-05
5.00549e-05
4.91913e-05
4.8216e-05
4.71365e-05
4.59576e-05
4.46866e-05
4.33287e-05
4.18918e-05
4.038e-05
3.88e-05
3.71577e-05
3.54574e-05
3.37062e-05
3.19084e-05
3.00691e-05
2.81945e-05
2.629e-05
2.43619e-05
2.24154e-05
2.04552e-05
1.84877e-05
1.65174e-05
1.45499e-05
1.25906e-05
1.06441e-05
8.71631e-06
6.81208e-06
4.93497e-06
3.09199e-06
1.28611e-06
-4.77486e-07
-2.19301e-06
-3.85825e-06
-5.46791e-06
-7.01886e-06
-8.50585e-06
-9.92688e-06
-1.12778e-05
-1.25552e-05
-1.37567e-05
-1.48783e-05
-1.59179e-05
-1.68726e-05
-1.77393e-05
-1.85144e-05
-1.91967e-05
-1.97786e-05
-2.02643e-05
-2.06384e-05
-2.09087e-05
-2.10604e-05
-2.10937e-05
-2.1e-05
-2.07742e-05
-2.04063e-05
-1.98928e-05
-1.92223e-05
-1.83934e-05
-1.73859e-05
-1.62072e-05
-1.48492e-05
-1.3286e-05
-1.15701e-05
-9.63021e-06
-7.508e-06
-5.20058e-06
-3.03083e-06
-2.87276e-08
2.37704e-06
5.38358e-06
8.22234e-06
1.12582e-05
1.43252e-05
1.73899e-05
2.0462e-05
2.34837e-05
2.64394e-05
2.92979e-05
3.2046e-05
3.4657e-05
3.71159e-05
3.94137e-05
4.15289e-05
4.34684e-05
4.52127e-05
4.67708e-05
4.81326e-05
4.9306e-05
5.02895e-05
5.10889e-05
5.17052e-05
5.21462e-05
5.2416e-05
5.25211e-05
5.24681e-05
5.22631e-05
5.19129e-05
5.14246e-05
5.08046e-05
5.006e-05
4.91972e-05
4.82225e-05
4.71437e-05
4.59654e-05
4.4695e-05
4.33376e-05
4.19012e-05
4.03898e-05
3.88103e-05
3.71684e-05
3.54684e-05
3.37174e-05
3.19199e-05
3.00808e-05
2.82064e-05
2.63021e-05
2.43741e-05
2.24277e-05
2.04675e-05
1.84999e-05
1.65297e-05
1.4562e-05
1.26026e-05
1.0656e-05
8.72804e-06
6.8236e-06
4.94633e-06
3.1031e-06
1.29699e-06
-4.66844e-07
-2.18267e-06
-3.84818e-06
-5.45814e-06
-7.00935e-06
-8.49668e-06
-9.91801e-06
-1.12693e-05
-1.25469e-05
-1.37487e-05
-1.48707e-05
-1.59106e-05
-1.68657e-05
-1.77329e-05
-1.85084e-05
-1.91913e-05
-1.97738e-05
-2.02602e-05
-2.0635e-05
-2.09062e-05
-2.10587e-05
-2.1093e-05
-2.10004e-05
-2.07756e-05
-2.04087e-05
-1.98962e-05
-1.92266e-05
-1.83987e-05
-1.73921e-05
-1.6214e-05
-1.48568e-05
-1.3294e-05
-1.15789e-05
-9.6402e-06
-7.51873e-06
-5.20905e-06
-3.04841e-06
-4.43108e-08
2.35887e-06
5.36303e-06
8.20177e-06
1.12364e-05
1.43037e-05
1.73695e-05
2.04429e-05
2.34664e-05
2.64239e-05
2.92842e-05
3.2034e-05
3.46469e-05
3.71075e-05
3.9407e-05
4.15237e-05
4.34644e-05
4.52096e-05
4.67685e-05
4.81311e-05
4.93052e-05
5.02894e-05
5.10895e-05
5.17067e-05
5.21485e-05
5.24191e-05
5.2525e-05
5.24729e-05
5.22686e-05
5.19192e-05
5.14316e-05
5.08124e-05
5.00685e-05
4.92063e-05
4.82323e-05
4.7154e-05
4.59763e-05
4.47063e-05
4.33495e-05
4.19134e-05
4.04024e-05
3.88232e-05
3.71815e-05
3.54818e-05
3.37309e-05
3.19335e-05
3.00945e-05
2.82202e-05
2.63159e-05
2.43879e-05
2.24414e-05
2.04811e-05
1.85134e-05
1.6543e-05
1.45751e-05
1.26155e-05
1.06686e-05
8.74035e-06
6.83556e-06
4.95801e-06
3.11441e-06
1.30794e-06
-4.5624e-07
-2.17248e-06
-3.83836e-06
-5.4487e-06
-7.00027e-06
-8.48801e-06
-9.90971e-06
-1.12613e-05
-1.25394e-05
-1.37416e-05
-1.4864e-05
-1.59044e-05
-1.68599e-05
-1.77276e-05
-1.85037e-05
-1.91871e-05
-1.97703e-05
-2.02575e-05
-2.06332e-05
-2.09054e-05
-2.1059e-05
-2.10944e-05
-2.1003e-05
-2.07793e-05
-2.04136e-05
-1.99023e-05
-1.92337e-05
-1.8407e-05
-1.74014e-05
-1.62241e-05
-1.48677e-05
-1.33054e-05
-1.15912e-05
-9.65385e-06
-7.53316e-06
-5.22113e-06
-3.0697e-06
-6.38189e-08
2.33738e-06
5.33892e-06
8.17823e-06
1.1212e-05
1.42801e-05
1.73474e-05
2.04225e-05
2.34481e-05
2.64077e-05
2.92704e-05
3.20224e-05
3.46375e-05
3.71002e-05
3.94017e-05
4.15201e-05
4.34623e-05
4.52088e-05
4.67689e-05
4.81327e-05
4.93076e-05
5.02928e-05
5.10937e-05
5.17118e-05
5.21544e-05
5.24259e-05
5.25327e-05
5.24813e-05
5.22778e-05
5.19292e-05
5.14423e-05
5.08237e-05
5.00804e-05
4.92188e-05
4.82453e-05
4.71675e-05
4.59902e-05
4.47206e-05
4.33641e-05
4.19283e-05
4.04176e-05
3.88385e-05
3.71969e-05
3.54973e-05
3.37465e-05
3.1949e-05
3.011e-05
2.82356e-05
2.63311e-05
2.44029e-05
2.24562e-05
2.04957e-05
1.85277e-05
1.6557e-05
1.45887e-05
1.26287e-05
1.06814e-05
8.75275e-06
6.84748e-06
4.96953e-06
3.12542e-06
1.31849e-06
-4.46152e-07
-2.16292e-06
-3.82927e-06
-5.44009e-06
-6.9921e-06
-8.48033e-06
-9.90247e-06
-1.12546e-05
-1.25331e-05
-1.37358e-05
-1.48587e-05
-1.58996e-05
-1.68556e-05
-1.7724e-05
-1.85007e-05
-1.91848e-05
-1.97687e-05
-2.02568e-05
-2.06335e-05
-2.09067e-05
-2.10616e-05
-2.10983e-05
-2.10081e-05
-2.07858e-05
-2.04214e-05
-1.99113e-05
-1.9244e-05
-1.84185e-05
-1.74141e-05
-1.62376e-05
-1.48821e-05
-1.33205e-05
-1.16072e-05
-9.67133e-06
-7.55141e-06
-5.237e-06
-3.09452e-06
-8.66097e-08
2.31367e-06
5.3124e-06
8.1527e-06
1.11859e-05
1.42547e-05
1.73239e-05
2.04011e-05
2.34294e-05
2.63915e-05
2.92568e-05
3.20114e-05
3.46291e-05
3.70944e-05
3.93982e-05
4.15187e-05
4.34627e-05
4.52109e-05
4.67727e-05
4.8138e-05
4.93139e-05
5.03e-05
5.11019e-05
5.17209e-05
5.21645e-05
5.24368e-05
5.25444e-05
5.24938e-05
5.2291e-05
5.1943e-05
5.14567e-05
5.08387e-05
5.00959e-05
4.92347e-05
4.82617e-05
4.71842e-05
4.60072e-05
4.47379e-05
4.33816e-05
4.19459e-05
4.04352e-05
3.88561e-05
3.72145e-05
3.55148e-05
3.37638e-05
3.19661e-05
3.01269e-05
2.82522e-05
2.63475e-05
2.4419e-05
2.24719e-05
2.0511e-05
1.85425e-05
1.65713e-05
1.46025e-05
1.26419e-05
1.06941e-05
8.76489e-06
6.859e-06
4.98051e-06
3.13578e-06
1.32825e-06
-4.36961e-07
-2.15437e-06
-3.82129e-06
-5.43269e-06
-6.98523e-06
-8.47404e-06
-9.89672e-06
-1.12494e-05
-1.25284e-05
-1.37317e-05
-1.48552e-05
-1.58967e-05
-1.68534e-05
-1.77224e-05
-1.84998e-05
-1.91846e-05
-1.97694e-05
-2.02584e-05
-2.06362e-05
-2.09106e-05
-2.10668e-05
-2.11049e-05
-2.10161e-05
-2.07952e-05
-2.04322e-05
-1.99235e-05
-1.92576e-05
-1.84333e-05
-1.74302e-05
-1.62546e-05
-1.49001e-05
-1.33391e-05
-1.16267e-05
-9.69239e-06
-7.57314e-06
-5.25633e-06
-3.12227e-06
-1.12111e-07
2.28828e-06
5.28375e-06
8.12536e-06
1.1158e-05
1.42276e-05
1.72992e-05
2.03788e-05
2.34101e-05
2.63752e-05
2.92438e-05
3.20013e-05
3.46222e-05
3.70905e-05
3.93971e-05
4.15201e-05
4.34666e-05
4.52171e-05
4.67806e-05
4.81474e-05
4.93244e-05
5.03116e-05
5.11145e-05
5.17344e-05
5.21789e-05
5.2452e-05
5.25604e-05
5.25104e-05
5.23083e-05
5.19608e-05
5.14751e-05
5.08575e-05
5.01151e-05
4.92542e-05
4.82815e-05
4.72041e-05
4.60273e-05
4.4758e-05
4.34018e-05
4.1966e-05
4.04552e-05
3.8876e-05
3.7234e-05
3.55341e-05
3.37827e-05
3.19847e-05
3.01451e-05
2.827e-05
2.63648e-05
2.44358e-05
2.24882e-05
2.05267e-05
1.85576e-05
1.65857e-05
1.46163e-05
1.2655e-05
1.07065e-05
8.77651e-06
6.86986e-06
4.99068e-06
3.1452e-06
1.33696e-06
-4.2894e-07
-2.14709e-06
-3.81469e-06
-5.42678e-06
-6.97995e-06
-8.46945e-06
-9.89278e-06
-1.12461e-05
-1.25257e-05
-1.37296e-05
-1.48538e-05
-1.58959e-05
-1.68533e-05
-1.77231e-05
-1.85012e-05
-1.91868e-05
-1.97724e-05
-2.02624e-05
-2.06414e-05
-2.0917e-05
-2.10746e-05
-2.11141e-05
-2.10269e-05
-2.08075e-05
-2.04459e-05
-1.99387e-05
-1.92741e-05
-1.84512e-05
-1.74495e-05
-1.62748e-05
-1.49211e-05
-1.3361e-05
-1.1649e-05
-9.71635e-06
-7.59751e-06
-5.27821e-06
-3.15211e-06
-1.4054e-07
2.26074e-06
5.25244e-06
8.09577e-06
1.11281e-05
1.41987e-05
1.72732e-05
2.03557e-05
2.33907e-05
2.63593e-05
2.92316e-05
3.19926e-05
3.46171e-05
3.70889e-05
3.93991e-05
4.15256e-05
4.3475e-05
4.52279e-05
4.6793e-05
4.81612e-05
4.93394e-05
5.03277e-05
5.11315e-05
5.17524e-05
5.21978e-05
5.24716e-05
5.25808e-05
5.25313e-05
5.23298e-05
5.19828e-05
5.14974e-05
5.08801e-05
5.01379e-05
4.92772e-05
4.83046e-05
4.72272e-05
4.60504e-05
4.4781e-05
4.34247e-05
4.19886e-05
4.04775e-05
3.88979e-05
3.72555e-05
3.55552e-05
3.38033e-05
3.20047e-05
3.01645e-05
2.82888e-05
2.6383e-05
2.44533e-05
2.25049e-05
2.05427e-05
1.85728e-05
1.66001e-05
1.46298e-05
1.26677e-05
1.07183e-05
8.78751e-06
6.87994e-06
4.99993e-06
3.15355e-06
1.34445e-06
-4.22265e-07
-2.14126e-06
-3.80964e-06
-5.4225e-06
-6.97642e-06
-8.46672e-06
-9.89082e-06
-1.12448e-05
-1.25252e-05
-1.37297e-05
-1.48545e-05
-1.58973e-05
-1.68554e-05
-1.77259e-05
-1.85048e-05
-1.91912e-05
-1.97778e-05
-2.02687e-05
-2.06489e-05
-2.09256e-05
-2.10845e-05
-2.11255e-05
-2.10399e-05
-2.0822e-05
-2.04621e-05
-1.99564e-05
-1.92933e-05
-1.84717e-05
-1.74714e-05
-1.62977e-05
-1.49449e-05
-1.33855e-05
-1.1674e-05
-9.74296e-06
-7.62431e-06
-5.3026e-06
-3.184e-06
-1.72253e-07
2.23077e-06
5.21849e-06
8.06398e-06
1.10963e-05
1.41684e-05
1.72463e-05
2.03322e-05
2.33712e-05
2.63438e-05
2.92204e-05
3.19855e-05
3.46148e-05
3.70912e-05
3.94056e-05
4.15358e-05
4.34879e-05
4.5243e-05
4.68098e-05
4.81795e-05
4.9359e-05
5.03485e-05
5.11533e-05
5.17751e-05
5.22213e-05
5.24958e-05
5.26057e-05
5.25567e-05
5.23556e-05
5.20089e-05
5.15238e-05
5.09066e-05
5.01646e-05
4.93039e-05
4.83312e-05
4.72537e-05
4.60767e-05
4.4807e-05
4.34503e-05
4.20138e-05
4.05022e-05
3.89221e-05
3.72791e-05
3.55781e-05
3.38255e-05
3.20262e-05
3.01852e-05
2.83087e-05
2.64021e-05
2.44715e-05
2.25222e-05
2.05591e-05
1.85882e-05
1.66145e-05
1.46432e-05
1.268e-05
1.07297e-05
8.79786e-06
6.88924e-06
5.00826e-06
3.1608e-06
1.35066e-06
-4.17018e-07
-2.13696e-06
-3.80623e-06
-5.41996e-06
-6.97467e-06
-8.46585e-06
-9.89078e-06
-1.12456e-05
-1.25266e-05
-1.37318e-05
-1.48573e-05
-1.59007e-05
-1.68594e-05
-1.77304e-05
-1.85101e-05
-1.91974e-05
-1.97849e-05
-2.02768e-05
-2.06582e-05
-2.09361e-05
-2.10964e-05
-2.11389e-05
-2.1055e-05
-2.08388e-05
-2.04806e-05
-1.99765e-05
-1.9315e-05
-1.8495e-05
-1.74962e-05
-1.63235e-05
-1.49715e-05
-1.34132e-05
-1.17019e-05
-9.77265e-06
-7.65409e-06
-5.33019e-06
-3.21835e-06
-2.07279e-07
2.19838e-06
5.18198e-06
8.03004e-06
1.10628e-05
1.41366e-05
1.72184e-05
2.03082e-05
2.33519e-05
2.63293e-05
2.92113e-05
3.19818e-05
3.46164e-05
3.70978e-05
3.94163e-05
4.15501e-05
4.35048e-05
4.52624e-05
4.6831e-05
4.82025e-05
4.93834e-05
5.0374e-05
5.11798e-05
5.18026e-05
5.22496e-05
5.25248e-05
5.26352e-05
5.25867e-05
5.2386e-05
5.20395e-05
5.15545e-05
5.09373e-05
5.01952e-05
4.93344e-05
4.83615e-05
4.72836e-05
4.61062e-05
4.48361e-05
4.34789e-05
4.20418e-05
4.05295e-05
3.89487e-05
3.73049e-05
3.56031e-05
3.38495e-05
3.20492e-05
3.02073e-05
2.83298e-05
2.64222e-05
2.44906e-05
2.25402e-05
2.05759e-05
1.8604e-05
1.6629e-05
1.46564e-05
1.26921e-05
1.07406e-05
8.80758e-06
6.89778e-06
5.01569e-06
3.16705e-06
1.35573e-06
-4.13085e-07
-2.13415e-06
-3.80444e-06
-5.41916e-06
-6.97475e-06
-8.46671e-06
-9.89222e-06
-1.12477e-05
-1.25296e-05
-1.37356e-05
-1.48618e-05
-1.59059e-05
-1.6865e-05
-1.77366e-05
-1.85171e-05
-1.92053e-05
-1.97938e-05
-2.02867e-05
-2.06696e-05
-2.09488e-05
-2.11107e-05
-2.1155e-05
-2.10728e-05
-2.08584e-05
-2.0502e-05
-1.99997e-05
-1.93399e-05
-1.85214e-05
-1.75242e-05
-1.63527e-05
-1.50015e-05
-1.34442e-05
-1.17331e-05
-9.80566e-06
-7.68705e-06
-5.36115e-06
-3.25522e-06
-2.45657e-07
2.16348e-06
5.14291e-06
7.99387e-06
1.10275e-05
1.41033e-05
1.71897e-05
2.02841e-05
2.33339e-05
2.63172e-05
2.92055e-05
3.19817e-05
3.46216e-05
3.71079e-05
3.94304e-05
4.15681e-05
4.35258e-05
4.52861e-05
4.68568e-05
4.82301e-05
4.94125e-05
5.04044e-05
5.12114e-05
5.18352e-05
5.22829e-05
5.25588e-05
5.26697e-05
5.26215e-05
5.24211e-05
5.20747e-05
5.15897e-05
5.09725e-05
5.02302e-05
4.9369e-05
4.83958e-05
4.73174e-05
4.61394e-05
4.48686e-05
4.35107e-05
4.20727e-05
4.05597e-05
3.8978e-05
3.73331e-05
3.56303e-05
3.38756e-05
3.20742e-05
3.0231e-05
2.83523e-05
2.64435e-05
2.45107e-05
2.2559e-05
2.05935e-05
1.86202e-05
1.66438e-05
1.46698e-05
1.27039e-05
1.0751e-05
8.81662e-06
6.90542e-06
5.02205e-06
3.17218e-06
1.35986e-06
-4.10035e-07
-2.13241e-06
-3.80389e-06
-5.41971e-06
-6.97628e-06
-8.46914e-06
-9.89532e-06
-1.12515e-05
-1.25342e-05
-1.3741e-05
-1.4868e-05
-1.59129e-05
-1.68728e-05
-1.77452e-05
-1.85266e-05
-1.92155e-05
-1.98052e-05
-2.02991e-05
-2.06835e-05
-2.09641e-05
-2.11278e-05
-2.11737e-05
-2.10935e-05
-2.08809e-05
-2.05265e-05
-2.00259e-05
-1.93681e-05
-1.85512e-05
-1.75556e-05
-1.63853e-05
-1.5035e-05
-1.34787e-05
-1.17676e-05
-9.84206e-06
-7.72325e-06
-5.39557e-06
-3.29466e-06
-2.87497e-07
2.12583e-06
5.1011e-06
7.9553e-06
1.09902e-05
1.40689e-05
1.71611e-05
2.02615e-05
2.3318e-05
2.63078e-05
2.92021e-05
3.19839e-05
3.46292e-05
3.71207e-05
3.94478e-05
4.15897e-05
4.35509e-05
4.53142e-05
4.68872e-05
4.82626e-05
4.94466e-05
5.04399e-05
5.1248e-05
5.18729e-05
5.23215e-05
5.2598e-05
5.27094e-05
5.26615e-05
5.24612e-05
5.21148e-05
5.16297e-05
5.10123e-05
5.02697e-05
4.94081e-05
4.84344e-05
4.73553e-05
4.61766e-05
4.4905e-05
4.35461e-05
4.2107e-05
4.05929e-05
3.90102e-05
3.73641e-05
3.56601e-05
3.39041e-05
3.21013e-05
3.02567e-05
2.83765e-05
2.64662e-05
2.45318e-05
2.25786e-05
2.06115e-05
1.86366e-05
1.66588e-05
1.46834e-05
1.2716e-05
1.07614e-05
8.82533e-06
6.91247e-06
5.02756e-06
3.17622e-06
1.36274e-06
-4.08309e-07
-2.13206e-06
-3.80477e-06
-5.42175e-06
-6.9794e-06
-8.47336e-06
-9.90054e-06
-1.12577e-05
-1.25412e-05
-1.37488e-05
-1.48766e-05
-1.59223e-05
-1.6883e-05
-1.77562e-05
-1.85384e-05
-1.92283e-05
-1.98191e-05
-2.03141e-05
-2.06999e-05
-2.0982e-05
-2.11475e-05
-2.11954e-05
-2.1117e-05
-2.09065e-05
-2.05541e-05
-2.00555e-05
-1.93995e-05
-1.85843e-05
-1.75905e-05
-1.64214e-05
-1.50719e-05
-1.35168e-05
-1.18056e-05
-9.88198e-06
-7.76284e-06
-5.43361e-06
-3.33685e-06
-3.3299e-07
2.08524e-06
5.05657e-06
7.91473e-06
1.09521e-05
1.40346e-05
1.71334e-05
2.02401e-05
2.33031e-05
2.62992e-05
2.91999e-05
3.19876e-05
3.46389e-05
3.7136e-05
3.94683e-05
4.1615e-05
4.358e-05
4.53467e-05
4.69223e-05
4.82999e-05
4.94857e-05
5.04806e-05
5.129e-05
5.1916e-05
5.23655e-05
5.26427e-05
5.27546e-05
5.2707e-05
5.25068e-05
5.21603e-05
5.16749e-05
5.10572e-05
5.03142e-05
4.9452e-05
4.84776e-05
4.73978e-05
4.62182e-05
4.49456e-05
4.35856e-05
4.21452e-05
4.06297e-05
3.90455e-05
3.73979e-05
3.56924e-05
3.39348e-05
3.21304e-05
3.02844e-05
2.84027e-05
2.64907e-05
2.45544e-05
2.25992e-05
2.06302e-05
1.86534e-05
1.66738e-05
1.46969e-05
1.27279e-05
1.07714e-05
8.83348e-06
6.91882e-06
5.03222e-06
3.17918e-06
1.3641e-06
-4.08429e-07
-2.13361e-06
-3.80761e-06
-5.4258e-06
-6.9846e-06
-8.47971e-06
-9.90797e-06
-1.12661e-05
-1.25506e-05
-1.3759e-05
-1.48876e-05
-1.59341e-05
-1.68956e-05
-1.77697e-05
-1.85528e-05
-1.92436e-05
-1.98356e-05
-2.03316e-05
-2.07191e-05
-2.10027e-05
-2.11701e-05
-2.12199e-05
-2.11437e-05
-2.09352e-05
-2.05849e-05
-2.00884e-05
-1.94345e-05
-1.8621e-05
-1.76291e-05
-1.64613e-05
-1.51127e-05
-1.35587e-05
-1.18473e-05
-9.92563e-06
-7.80604e-06
-5.47558e-06
-3.3821e-06
-3.81883e-07
2.04209e-06
5.01014e-06
7.87299e-06
1.09135e-05
1.39999e-05
1.71051e-05
2.02179e-05
2.32877e-05
2.62904e-05
2.9198e-05
3.19924e-05
3.46503e-05
3.71538e-05
3.94917e-05
4.16438e-05
4.3613e-05
4.53835e-05
4.6962e-05
4.83422e-05
4.953e-05
5.05266e-05
5.13375e-05
5.19648e-05
5.24153e-05
5.26933e-05
5.28058e-05
5.27585e-05
5.25583e-05
5.22116e-05
5.17259e-05
5.11077e-05
5.0364e-05
4.9501e-05
4.85257e-05
4.74448e-05
4.62641e-05
4.49902e-05
4.36292e-05
4.21875e-05
4.06704e-05
3.90844e-05
3.7435e-05
3.57275e-05
3.39679e-05
3.21615e-05
3.03137e-05
2.84304e-05
2.65165e-05
2.45781e-05
2.26208e-05
2.06497e-05
1.86708e-05
1.6689e-05
1.471e-05
1.27389e-05
1.07806e-05
8.84069e-06
6.92412e-06
5.03571e-06
3.18087e-06
1.36405e-06
-4.10124e-07
-2.13688e-06
-3.8123e-06
-5.43184e-06
-6.99191e-06
-8.48826e-06
-9.91765e-06
-1.12768e-05
-1.25623e-05
-1.37716e-05
-1.49011e-05
-1.59484e-05
-1.69108e-05
-1.77858e-05
-1.85699e-05
-1.92616e-05
-1.98548e-05
-2.0352e-05
-2.07411e-05
-2.10263e-05
-2.11957e-05
-2.12476e-05
-2.11736e-05
-2.09673e-05
-2.06193e-05
-2.01249e-05
-1.94732e-05
-1.86616e-05
-1.76717e-05
-1.65053e-05
-1.51574e-05
-1.36047e-05
-1.18931e-05
-9.97332e-06
-7.8532e-06
-5.52177e-06
-3.43063e-06
-4.3353e-07
1.99647e-06
4.96174e-06
7.82923e-06
1.08725e-05
1.39628e-05
1.70745e-05
2.01937e-05
2.32708e-05
2.62809e-05
2.91962e-05
3.1998e-05
3.46632e-05
3.71738e-05
3.9518e-05
4.1676e-05
4.365e-05
4.54248e-05
4.70067e-05
4.83899e-05
4.95799e-05
5.05786e-05
5.13911e-05
5.20199e-05
5.24714e-05
5.27502e-05
5.28632e-05
5.28161e-05
5.2616e-05
5.22695e-05
5.17834e-05
5.11645e-05
5.04199e-05
4.95558e-05
4.85793e-05
4.74969e-05
4.63147e-05
4.50392e-05
4.36767e-05
4.22335e-05
4.07147e-05
3.91267e-05
3.74751e-05
3.57655e-05
3.40037e-05
3.2195e-05
3.03449e-05
2.84593e-05
2.65432e-05
2.46027e-05
2.26431e-05
2.06698e-05
1.86885e-05
1.67045e-05
1.47232e-05
1.27498e-05
1.07893e-05
8.84723e-06
6.92855e-06
5.03813e-06
3.18131e-06
1.36259e-06
-4.13396e-07
-2.14187e-06
-3.81886e-06
-5.43991e-06
-7.00138e-06
-8.49907e-06
-9.9297e-06
-1.129e-05
-1.25765e-05
-1.37868e-05
-1.49172e-05
-1.59654e-05
-1.69287e-05
-1.78046e-05
-1.85897e-05
-1.92823e-05
-1.98769e-05
-2.03752e-05
-2.07662e-05
-2.1053e-05
-2.12245e-05
-2.12786e-05
-2.12069e-05
-2.10029e-05
-2.06574e-05
-2.01653e-05
-1.9516e-05
-1.87063e-05
-1.77185e-05
-1.65536e-05
-1.52066e-05
-1.36552e-05
-1.19431e-05
-1.00254e-05
-7.90458e-06
-5.57211e-06
-3.48179e-06
-4.88757e-07
1.94694e-06
4.90941e-06
7.78133e-06
1.08275e-05
1.39218e-05
1.70405e-05
2.01668e-05
2.3252e-05
2.62703e-05
2.91942e-05
3.20043e-05
3.46778e-05
3.71962e-05
3.95475e-05
4.17122e-05
4.36916e-05
4.54713e-05
4.70571e-05
4.84437e-05
4.96368e-05
5.0638e-05
5.14524e-05
5.20826e-05
5.25351e-05
5.28146e-05
5.2928e-05
5.2881e-05
5.26807e-05
5.2334e-05
5.18475e-05
5.12277e-05
5.04819e-05
4.96166e-05
4.86385e-05
4.75545e-05
4.63705e-05
4.50931e-05
4.37286e-05
4.22833e-05
4.07623e-05
3.91721e-05
3.75182e-05
3.58063e-05
3.40421e-05
3.2231e-05
3.03785e-05
2.84904e-05
2.65718e-05
2.46287e-05
2.26666e-05
2.06907e-05
1.87069e-05
1.67203e-05
1.47365e-05
1.27606e-05
1.07976e-05
8.8532e-06
6.93216e-06
5.03951e-06
3.18049e-06
1.35968e-06
-4.18297e-07
-2.14865e-06
-3.82738e-06
-5.4501e-06
-7.0131e-06
-8.51225e-06
-9.94421e-06
-1.13057e-05
-1.25934e-05
-1.38047e-05
-1.49361e-05
-1.59853e-05
-1.69494e-05
-1.78263e-05
-1.86124e-05
-1.93061e-05
-1.9902e-05
-2.04016e-05
-2.07944e-05
-2.1083e-05
-2.12567e-05
-2.13131e-05
-2.12439e-05
-2.10425e-05
-2.06996e-05
-2.02099e-05
-1.95631e-05
-1.87556e-05
-1.777e-05
-1.66067e-05
-1.52606e-05
-1.37105e-05
-1.1998e-05
-1.00821e-05
-7.96011e-06
-5.62645e-06
-3.53581e-06
-5.49521e-07
1.89187e-06
4.85162e-06
7.72802e-06
1.07773e-05
1.38763e-05
1.70028e-05
2.01372e-05
2.32315e-05
2.62591e-05
2.91925e-05
3.2012e-05
3.46949e-05
3.72226e-05
3.95823e-05
4.17546e-05
4.37401e-05
4.55251e-05
4.71151e-05
4.85055e-05
4.97018e-05
5.07058e-05
5.15219e-05
5.21536e-05
5.26072e-05
5.28873e-05
5.30008e-05
5.29537e-05
5.27531e-05
5.24056e-05
5.19182e-05
5.12973e-05
5.05501e-05
4.96832e-05
4.87035e-05
4.76176e-05
4.64317e-05
4.51522e-05
4.37854e-05
4.23377e-05
4.08143e-05
3.92216e-05
3.75651e-05
3.58506e-05
3.40837e-05
3.22699e-05
3.04146e-05
2.85237e-05
2.66023e-05
2.46564e-05
2.26914e-05
2.07127e-05
1.87261e-05
1.67367e-05
1.475e-05
1.27714e-05
1.08057e-05
8.85861e-06
6.93498e-06
5.03985e-06
3.17842e-06
1.3553e-06
-4.24863e-07
-2.15729e-06
-3.83793e-06
-5.46248e-06
-7.02716e-06
-8.52789e-06
-9.9613e-06
-1.13241e-05
-1.2613e-05
-1.38254e-05
-1.49579e-05
-1.6008e-05
-1.69732e-05
-1.7851e-05
-1.86382e-05
-1.93331e-05
-1.99304e-05
-2.04313e-05
-2.0826e-05
-2.11166e-05
-2.12926e-05
-2.13515e-05
-2.12849e-05
-2.10861e-05
-2.0746e-05
-2.0259e-05
-1.96149e-05
-1.88097e-05
-1.78265e-05
-1.66649e-05
-1.53197e-05
-1.3771e-05
-1.20581e-05
-1.0144e-05
-8.02034e-06
-5.68598e-06
-3.59437e-06
-6.16911e-07
1.83059e-06
4.78793e-06
7.66918e-06
1.07224e-05
1.38268e-05
1.69621e-05
2.01058e-05
2.32107e-05
2.62492e-05
2.91934e-05
3.20235e-05
3.47168e-05
3.72547e-05
3.96235e-05
4.18041e-05
4.37961e-05
4.5587e-05
4.71815e-05
4.85757e-05
4.97751e-05
5.07816e-05
5.15996e-05
5.22328e-05
5.26873e-05
5.29681e-05
5.30818e-05
5.30345e-05
5.28333e-05
5.24849e-05
5.19964e-05
5.13741e-05
5.06254e-05
4.97567e-05
4.8775e-05
4.7687e-05
4.64988e-05
4.52169e-05
4.38476e-05
4.23972e-05
4.08711e-05
3.92755e-05
3.76162e-05
3.58987e-05
3.41287e-05
3.23118e-05
3.04535e-05
2.85594e-05
2.66349e-05
2.46859e-05
2.27178e-05
2.0736e-05
1.87462e-05
1.67537e-05
1.47639e-05
1.27822e-05
1.08135e-05
8.8635e-06
6.93702e-06
5.03916e-06
3.17507e-06
1.34941e-06
-4.33137e-07
-2.16783e-06
-3.8506e-06
-5.47716e-06
-7.04367e-06
-8.54612e-06
-9.9811e-06
-1.13454e-05
-1.26356e-05
-1.38491e-05
-1.49827e-05
-1.6034e-05
-1.70002e-05
-1.78791e-05
-1.86675e-05
-1.93634e-05
-1.99623e-05
-2.04646e-05
-2.08614e-05
-2.11539e-05
-2.13325e-05
-2.1394e-05
-2.13302e-05
-2.11343e-05
-2.07972e-05
-2.03131e-05
-1.96718e-05
-1.8869e-05
-1.78884e-05
-1.67287e-05
-1.53846e-05
-1.38374e-05
-1.21239e-05
-1.02117e-05
-8.08674e-06
-5.75237e-06
-3.65858e-06
-6.91261e-07
1.76359e-06
4.71904e-06
7.60579e-06
1.06638e-05
1.37747e-05
1.692e-05
2.00742e-05
2.31909e-05
2.62414e-05
2.91975e-05
3.20391e-05
3.47436e-05
3.72922e-05