/*--------------------------------*- C++ -*----------------------------------*\
  =========                 |
  \\      /  F ield         | OpenFOAM: The Open Source CFD Toolbox
   \\    /   O peration     | Website:  https://openfoam.org
    \\  /    A nd           | Version:  7
     \\/     M anipulation  |
\*---------------------------------------------------------------------------*/
FoamFile
{
    version     2.0;
    format      ascii;
    class       volVectorField;
    location    "10000";
    object      U;
}
// * * * * * * * * * * * * * * * * * * * * * * * * * * * * * * * * * * * * * //

dimensions      [0 1 -1 0 0 0 0];

internalField   nonuniform List<vector> 
14751
(
(0.00158858 1.05525e-07 0)
(0.0015823 -5.93688e-08 0)
(0.00158312 1.08449e-07 1.7973e-27)
(0.00157484 9.78697e-08 -1.79836e-27)
(0.00156859 1.58357e-07 6.74775e-27)
(0.00155728 1.96816e-07 -1.27693e-25)
(0.00154419 2.23597e-07 0)
(0.00152907 2.59268e-07 2.89868e-27)
(0.00151154 2.82975e-07 3.93138e-28)
(0.00149236 3.0295e-07 4.06354e-27)
(0.00147166 3.1562e-07 7.39015e-28)
(0.00144969 3.25736e-07 -5.5074e-25)
(0.00142661 3.29727e-07 0)
(0.00140295 3.28322e-07 2.02781e-26)
(0.00137882 3.24484e-07 6.48679e-25)
(0.00135458 3.12376e-07 3.52751e-25)
(0.00133044 3.0093e-07 -2.35605e-26)
(0.00130648 2.82157e-07 2.35824e-26)
(0.00128301 2.64651e-07 3.98339e-25)
(0.00126009 2.43822e-07 4.10299e-25)
(0.00123798 2.23992e-07 0)
(0.00121663 2.0414e-07 4.56465e-25)
(0.00119617 1.85686e-07 -2.70736e-26)
(0.00117668 1.67937e-07 2.77545e-26)
(0.00115827 1.51677e-07 -2.77763e-26)
(0.00114087 1.35817e-07 -8.97835e-25)
(0.00112452 1.21944e-07 0)
(0.00110923 1.08272e-07 -2.24954e-25)
(0.001095 9.62874e-08 0)
(0.00108187 8.49691e-08 0)
(0.00106983 7.47175e-08 0)
(0.00105886 6.51889e-08 0)
(0.00104895 5.65778e-08 0)
(0.00104009 4.8564e-08 -1.30842e-26)
(0.00103227 4.12096e-08 1.30886e-26)
(0.00102542 3.40451e-08 -4.17955e-25)
(0.00101953 2.78208e-08 4.07892e-25)
(0.0010146 2.20079e-08 3.84502e-25)
(0.00101064 1.6523e-08 0)
(0.00100756 1.05789e-08 0)
(0.00100533 5.29594e-09 -2.66176e-27)
(0.001004 1.88894e-09 2.66189e-27)
(0.00100352 -2.36531e-09 2.44096e-27)
(0.00100389 -5.23403e-09 -2.44105e-27)
(0.00100509 -8.83223e-09 -1.10273e-27)
(0.00100701 -1.18917e-08 1.10274e-27)
(0.00100966 -1.51854e-08 4.895e-28)
(0.00101302 -1.82352e-08 1.20781e-25)
(0.00101711 -2.14009e-08 0)
(0.0010219 -2.40829e-08 -9.81976e-29)
(0.00102736 -2.65468e-08 9.81894e-29)
(0.00103349 -2.87695e-08 1.63413e-28)
(0.00104027 -3.09483e-08 -1.63396e-28)
(0.00104765 -3.29969e-08 -2.60535e-28)
(0.00105561 -3.49861e-08 -6.26496e-26)
(0.00106413 -3.64894e-08 8.44156e-28)
(0.00107317 -3.81757e-08 -3.89183e-28)
(0.00108272 -3.94197e-08 0)
(0.00109271 -4.057e-08 0)
(0.00110318 -4.06063e-08 0)
(0.0011141 -4.15793e-08 5.25347e-26)
(0.0011254 -4.10861e-08 4.29237e-26)
(0.00113709 -4.23398e-08 4.93794e-29)
(0.00114905 -4.36518e-08 -4.10887e-28)
(0.00116122 -4.37092e-08 -8.50039e-28)
(0.00117366 -4.38121e-08 5.01767e-26)
(0.00118633 -4.40471e-08 -6.22022e-26)
(0.00119917 -4.45862e-08 0)
(0.00121214 -4.46415e-08 2.8494e-27)
(0.00122526 -4.50024e-08 -2.84805e-27)
(0.0012385 -4.52601e-08 0)
(0.00125183 -4.61571e-08 0)
(0.00126526 -4.70119e-08 0)
(0.00127875 -4.83845e-08 0)
(0.0012923 -5.03827e-08 1.80526e-26)
(0.00130593 -5.30915e-08 -9.68945e-27)
(0.0013196 -5.5852e-08 -2.01659e-26)
(0.00133334 -6.06794e-08 2.0464e-26)
(0.00134713 -6.40738e-08 -2.08101e-26)
(0.00136102 -7.25034e-08 -1.06678e-26)
(0.001375 -7.72037e-08 2.19713e-26)
(0.00138901 -8.7511e-08 0)
(0.00140318 -9.59122e-08 0)
(0.00141735 -1.06794e-07 -1.117e-26)
(0.0014316 -1.17265e-07 1.11599e-26)
(0.00144591 -1.28601e-07 0)
(0.00146021 -1.38144e-07 0)
(0.00147443 -1.49023e-07 0)
(0.00148849 -1.56591e-07 0)
(0.00150237 -1.67304e-07 -3.12738e-25)
(0.00151583 -1.70223e-07 2.35599e-27)
(0.00152867 -1.72665e-07 0)
(0.00154111 -1.75893e-07 1.84861e-27)
(0.00155224 -1.59771e-07 8.8448e-27)
(0.00156238 -1.64204e-07 -4.19881e-27)
(0.00157137 -1.42545e-07 1.38889e-27)
(0.00157727 -1.14103e-07 3.18478e-26)
(0.00157957 -4.04605e-08 -4.16659e-28)
(0.00158788 -1.85742e-07 -2.50797e-26)
(0.00471788 6.14291e-07 -2.38491e-28)
(0.00469909 4.46624e-08 0)
(0.00469693 6.69598e-07 4.06597e-24)
(0.00467572 8.0332e-07 1.67315e-25)
(0.0046589 1.09227e-06 -1.71087e-23)
(0.00463071 1.39636e-06 -2.59316e-25)
(0.00459773 1.5726e-06 -1.96342e-25)
(0.00455955 1.79237e-06 0)
(0.00451527 1.96645e-06 3.99653e-23)
(0.00446661 2.11304e-06 -2.50014e-24)
(0.00441393 2.22841e-06 0)
(0.0043579 2.32337e-06 8.09174e-25)
(0.00429895 2.38776e-06 0)
(0.00423832 2.42274e-06 0)
(0.00417641 2.44084e-06 -5.72577e-23)
(0.00411403 2.42113e-06 -8.85318e-24)
(0.00405183 2.40066e-06 7.17931e-23)
(0.00399 2.34694e-06 1.9071e-23)
(0.00392936 2.29011e-06 -1.97592e-23)
(0.00387009 2.21399e-06 -6.28861e-25)
(0.00381285 2.12997e-06 -1.04503e-23)
(0.00375759 2.03833e-06 9.82756e-24)
(0.00370462 1.94154e-06 0)
(0.00365418 1.83903e-06 0)
(0.00360655 1.73351e-06 0)
(0.00356159 1.62364e-06 1.39863e-24)
(0.00351945 1.51592e-06 -7.87092e-23)
(0.00348014 1.40473e-06 -1.01013e-22)
(0.00344367 1.29674e-06 0)
(0.00341019 1.18819e-06 3.92141e-23)
(0.00337965 1.08215e-06 5.00434e-23)
(0.00335204 9.77612e-07 -4.40095e-23)
(0.00332733 8.75696e-07 0)
(0.00330549 7.75085e-07 5.29229e-24)
(0.0032865 6.77013e-07 -5.24657e-23)
(0.00327024 5.81045e-07 8.37348e-24)
(0.0032566 4.88515e-07 -3.16583e-24)
(0.00324568 3.97289e-07 -2.013e-23)
(0.0032374 3.08367e-07 0)
(0.00323164 2.20289e-07 0)
(0.00322825 1.35662e-07 2.16634e-24)
(0.00322737 5.74324e-08 -2.16739e-24)
(0.00322888 -2.10416e-08 7.14485e-24)
(0.00323274 -9.35839e-08 9.94267e-25)
(0.00323891 -1.65268e-07 0)
(0.00324709 -2.32212e-07 0)
(0.00325728 -2.99563e-07 0)
(0.00326943 -3.66128e-07 -1.73629e-24)
(0.00328357 -4.32798e-07 0)
(0.00329966 -4.9592e-07 0)
(0.00331758 -5.56677e-07 -1.46432e-25)
(0.00333733 -6.15631e-07 1.46349e-25)
(0.00335883 -6.72139e-07 0)
(0.00338195 -7.26188e-07 -1.80092e-24)
(0.00340662 -7.78173e-07 3.26821e-24)
(0.00343275 -8.26272e-07 3.15794e-25)
(0.00346024 -8.72973e-07 -2.36465e-24)
(0.003489 -9.15455e-07 -2.62419e-25)
(0.0035189 -9.55489e-07 2.62965e-24)
(0.00354995 -9.90833e-07 3.16906e-25)
(0.00358209 -1.02614e-06 -1.99584e-25)
(0.00361511 -1.05474e-06 4.89088e-26)
(0.00364898 -1.08574e-06 0)
(0.00368339 -1.11273e-06 3.30311e-25)
(0.0037182 -1.13396e-06 -3.29748e-25)
(0.00375349 -1.15383e-06 -7.39801e-26)
(0.00378913 -1.17133e-06 9.46467e-26)
(0.00382497 -1.18677e-06 0)
(0.00386088 -1.19851e-06 0)
(0.0038969 -1.20931e-06 9.65094e-24)
(0.00393289 -1.21721e-06 0)
(0.00396881 -1.22549e-06 -3.04671e-24)
(0.00400461 -1.23132e-06 3.03903e-24)
(0.0040402 -1.23723e-06 0)
(0.00407561 -1.24398e-06 -2.78177e-26)
(0.00411079 -1.25073e-06 0)
(0.00414569 -1.25587e-06 3.03387e-26)
(0.00418034 -1.26622e-06 0)
(0.00421469 -1.27066e-06 3.30015e-23)
(0.00424885 -1.29043e-06 0)
(0.00428281 -1.29224e-06 -3.3364e-26)
(0.00431637 -1.31215e-06 -3.44821e-23)
(0.00434986 -1.32176e-06 3.46007e-23)
(0.0043829 -1.33679e-06 -3.45207e-23)
(0.00441567 -1.3494e-06 0)
(0.00444807 -1.36167e-06 0)
(0.00447994 -1.3647e-06 0)
(0.00451107 -1.36989e-06 -3.2029e-23)
(0.00454132 -1.36072e-06 -3.08205e-23)
(0.00457051 -1.35584e-06 4.58889e-25)
(0.00459814 -1.3123e-06 8.34542e-25)
(0.0046237 -1.26666e-06 -8.31227e-25)
(0.00464755 -1.21336e-06 8.66679e-26)
(0.004668 -1.08427e-06 -1.06744e-25)
(0.00468549 -1.01963e-06 -1.86242e-23)
(0.00469969 -7.96422e-07 5.16989e-25)
(0.00470651 -5.24983e-07 -1.17249e-23)
(0.00470824 -3.32886e-07 0)
(0.00472046 -7.46743e-07 3.63329e-26)
(0.00784406 1.58898e-06 9.30278e-28)
(0.0078123 6.16488e-07 -9.20101e-26)
(0.007805 1.81547e-06 -4.31213e-24)
(0.00777646 2.2297e-06 -2.55593e-23)
(0.00775453 2.88302e-06 1.92961e-23)
(0.00771859 3.65162e-06 -1.22339e-24)
(0.00767559 4.15371e-06 0)
(0.00762536 4.74067e-06 0)
(0.00756642 5.23975e-06 1.14309e-22)
(0.00750097 5.66723e-06 -4.8775e-24)
(0.00742956 6.02189e-06 -1.72241e-22)
(0.00735315 6.31469e-06 -2.01788e-22)
(0.0072724 6.53653e-06 1.00681e-24)
(0.00718892 6.683e-06 -2.52317e-22)
(0.00710342 6.77574e-06 3.34167e-22)
(0.00701698 6.77697e-06 -1.64233e-23)
(0.00693058 6.75761e-06 1.76788e-22)
(0.00684452 6.65615e-06 3.64362e-23)
(0.00676002 6.53133e-06 0)
(0.00667737 6.3568e-06 2.99936e-22)
(0.0065975 6.1502e-06 -3.09479e-22)
(0.00652043 5.91839e-06 0)
(0.00644661 5.66506e-06 0)
(0.0063764 5.39296e-06 0)
(0.00631018 5.10392e-06 -1.77976e-22)
(0.00624787 4.79958e-06 0)
(0.00618969 4.4944e-06 -1.12979e-22)
(0.00613569 4.1759e-06 1.1333e-22)
(0.00608591 3.86142e-06 -1.81246e-22)
(0.00604056 3.5419e-06 -4.51591e-23)
(0.00599961 3.22545e-06 -5.60211e-23)
(0.00596305 2.91067e-06 5.56361e-23)
(0.00593085 2.59996e-06 1.86537e-22)
(0.00590298 2.29103e-06 -2.16157e-23)
(0.00587945 1.9876e-06 5.32147e-23)
(0.00586006 1.68883e-06 1.0272e-23)
(0.00584472 1.3982e-06 -5.27999e-24)
(0.00583351 1.11029e-06 1.47655e-23)
(0.00582636 8.28803e-07 0)
(0.0058231 5.50623e-07 -3.71616e-23)
(0.00582353 2.82511e-07 -4.39237e-24)
(0.0058278 2.64756e-08 4.39414e-24)
(0.00583573 -2.26753e-07 -8.24904e-24)
(0.00584727 -4.6436e-07 0)
(0.00586231 -6.96464e-07 1.49612e-23)
(0.00588046 -9.13971e-07 -8.59293e-25)
(0.00590163 -1.1297e-06 8.58885e-25)
(0.00592574 -1.34337e-06 1.18443e-24)
(0.0059528 -1.55722e-06 -2.53291e-24)
(0.0059828 -1.76209e-06 -1.64981e-25)
(0.00601553 -1.95943e-06 2.55618e-24)
(0.00605096 -2.15012e-06 0)
(0.00608896 -2.33265e-06 -4.81761e-25)
(0.00612929 -2.50638e-06 3.15037e-24)
(0.00617184 -2.67219e-06 -4.04505e-24)
(0.00621642 -2.82634e-06 -1.16656e-23)
(0.00626285 -2.97335e-06 1.90297e-24)
(0.00631098 -3.10794e-06 1.05509e-24)
(0.00636056 -3.23378e-06 -3.59658e-24)
(0.00641156 -3.34616e-06 2.0259e-25)
(0.00646386 -3.45474e-06 -5.12187e-24)
(0.00651708 -3.54529e-06 2.3687e-24)
(0.00657112 -3.63366e-06 -2.55923e-25)
(0.00662557 -3.7098e-06 -3.54431e-24)
(0.00668017 -3.7698e-06 -6.69546e-24)
(0.00673496 -3.82379e-06 -1.07863e-23)
(0.0067897 -3.86828e-06 3.0106e-24)
(0.00684416 -3.90492e-06 -1.66285e-24)
(0.0068981 -3.92955e-06 3.38817e-23)
(0.00695151 -3.94904e-06 -4.52504e-24)
(0.0070042 -3.95913e-06 -1.0622e-23)
(0.00705604 -3.96661e-06 5.55391e-24)
(0.00710693 -3.96615e-06 -6.47497e-24)
(0.00715674 -3.96343e-06 1.33197e-23)
(0.00720546 -3.95996e-06 -6.84241e-24)
(0.00725304 -3.95334e-06 0)
(0.00729935 -3.94109e-06 6.13032e-23)
(0.0073444 -3.93699e-06 -1.26584e-22)
(0.00738819 -3.92112e-06 9.73857e-23)
(0.00743075 -3.93147e-06 1.32435e-22)
(0.00747215 -3.9053e-06 -1.68911e-23)
(0.00751207 -3.91014e-06 5.06516e-23)
(0.00755096 -3.89208e-06 -3.39161e-23)
(0.00758835 -3.87997e-06 1.68971e-22)
(0.00762446 -3.85796e-06 1.42196e-22)
(0.00765915 -3.82787e-06 -1.40008e-22)
(0.00769221 -3.77269e-06 0)
(0.00772336 -3.71402e-06 2.35257e-23)
(0.00775247 -3.61799e-06 3.75969e-23)
(0.00777922 -3.51627e-06 -1.10612e-22)
(0.00780301 -3.32721e-06 -1.10679e-22)
(0.00782317 -3.11782e-06 7.44057e-25)
(0.00784014 -2.8812e-06 -9.13412e-23)
(0.00785232 -2.49617e-06 0)
(0.00786009 -2.20782e-06 1.84778e-23)
(0.00786342 -1.59556e-06 -9.96526e-25)
(0.00785813 -9.5231e-07 1.11002e-23)
(0.00785037 -5.82494e-07 1.48492e-25)
(0.0078546 -1.17145e-06 7.00287e-26)
(0.0108745 3.07271e-06 -5.95993e-28)
(0.0108293 2.02291e-06 0)
(0.0108144 3.86308e-06 3.01713e-23)
(0.0107806 4.80527e-06 2.39167e-23)
(0.0107555 5.9734e-06 2.67165e-25)
(0.0107163 7.37513e-06 -1.6299e-22)
(0.0106686 8.39627e-06 0)
(0.0106128 9.51092e-06 0)
(0.0105468 1.04939e-05 -4.04194e-22)
(0.0104731 1.13394e-05 -1.00455e-23)
(0.0103923 1.20535e-05 -1.48727e-22)
(0.0103055 1.26394e-05 1.87955e-22)
(0.0102137 1.30968e-05 -4.19006e-22)
(0.0101186 1.3409e-05 2.1911e-22)
(0.0100211 1.36076e-05 -2.34046e-22)
(0.00992246 1.36438e-05 4.96137e-22)
(0.00982388 1.36143e-05 -2.61168e-22)
(0.00972574 1.34393e-05 5.81154e-22)
(0.0096295 1.32001e-05 -3.49338e-23)
(0.00953553 1.28684e-05 -3.31284e-22)
(0.0094449 1.24647e-05 3.78447e-22)
(0.00935771 1.20069e-05 -3.84193e-23)
(0.0092745 1.15003e-05 3.984e-23)
(0.00919567 1.09538e-05 -4.00203e-23)
(0.00912165 1.03669e-05 1.22222e-22)
(0.00905244 9.74852e-06 4.10427e-23)
(0.00898831 9.12036e-06 1.86214e-22)
(0.00892932 8.46397e-06 -3.31905e-22)
(0.00887557 7.81007e-06 1.65695e-22)
(0.00882726 7.14372e-06 3.09616e-22)
(0.00878439 6.47963e-06 -3.48462e-22)
(0.00874695 5.81695e-06 2.04302e-23)
(0.00871492 5.15953e-06 -1.60399e-22)
(0.00868828 4.50485e-06 0)
(0.008667 3.8594e-06 -1.55031e-22)
(0.00865092 3.22167e-06 -9.3663e-24)
(0.00863991 2.60022e-06 2.47179e-25)
(0.00863405 1.98388e-06 -1.26122e-22)
(0.00863324 1.37935e-06 -1.48685e-22)
(0.00863731 7.81661e-07 1.01397e-22)
(0.00864607 2.05359e-07 3.99217e-24)
(0.0086596 -3.50451e-07 -3.99111e-24)
(0.00867769 -8.96489e-07 0)
(0.00870027 -1.41125e-06 0)
(0.00872717 -1.91194e-06 -1.35626e-23)
(0.00875796 -2.38085e-06 0)
(0.00879243 -2.83847e-06 2.41457e-23)
(0.0088304 -3.29003e-06 0)
(0.00887189 -3.74348e-06 2.63142e-24)
(0.00891692 -4.18167e-06 7.60792e-26)
(0.00896523 -4.60246e-06 -2.77068e-24)
(0.00901672 -5.00635e-06 1.50297e-24)
(0.0090712 -5.39208e-06 -9.67548e-25)
(0.00912836 -5.75697e-06 0)
(0.009188 -6.10246e-06 -1.34223e-24)
(0.00924987 -6.42272e-06 1.24243e-23)
(0.00931371 -6.72386e-06 -1.14362e-24)
(0.00937927 -6.99901e-06 0)
(0.00944625 -7.25304e-06 -9.51464e-24)
(0.00951449 -7.47748e-06 -8.05768e-24)
(0.0095838 -7.69003e-06 4.00747e-24)
(0.00965372 -7.86594e-06 -1.88369e-24)
(0.00972403 -8.02921e-06 -1.91265e-24)
(0.00979427 -8.16745e-06 3.71785e-24)
(0.00986409 -8.27188e-06 6.02109e-24)
(0.00993344 -8.36071e-06 6.0683e-24)
(0.010002 -8.42745e-06 2.41463e-24)
(0.0100694 -8.4768e-06 -3.54891e-24)
(0.0101354 -8.50002e-06 3.8077e-23)
(0.0101999 -8.51015e-06 -7.30949e-23)
(0.0102626 -8.50078e-06 -5.01816e-24)
(0.0103234 -8.48217e-06 5.00375e-24)
(0.0103821 -8.44752e-06 -1.16744e-23)
(0.0104384 -8.40585e-06 1.16399e-23)
(0.0104925 -8.3598e-06 -1.30388e-23)
(0.0105441 -8.30545e-06 1.29986e-23)
(0.0105932 -8.2396e-06 -1.80427e-22)
(0.0106397 -8.18226e-06 2.28695e-22)
(0.0106836 -8.10873e-06 -3.38403e-22)
(0.0107249 -8.06845e-06 -1.20083e-22)
(0.0107638 -7.97607e-06 -2.4363e-22)
(0.0107998 -7.92035e-06 -2.45853e-22)
(0.0108334 -7.82945e-06 2.46637e-22)
(0.0108642 -7.73958e-06 -1.23014e-22)
(0.0108924 -7.62763e-06 1.21934e-22)
(0.0109178 -7.49327e-06 1.2012e-22)
(0.0109402 -7.31254e-06 -2.34932e-22)
(0.0109593 -7.1133e-06 -2.27999e-22)
(0.0109751 -6.84528e-06 -6.70544e-24)
(0.010987 -6.5473e-06 1.17481e-22)
(0.0109946 -6.10803e-06 9.19589e-23)
(0.0109971 -5.61147e-06 0)
(0.0109951 -5.05643e-06 2.49439e-22)
(0.0109875 -4.27719e-06 -9.29968e-25)
(0.0109745 -3.58611e-06 1.0796e-24)
(0.0109571 -2.43374e-06 7.41415e-25)
(0.010932 -1.28142e-06 -7.39862e-25)
(0.0109081 -5.8137e-07 4.31844e-29)
(0.0108967 -1.06232e-06 -3.23575e-26)
(0.0136154 5.17474e-06 8.93121e-29)
(0.0135571 4.45488e-06 -1.49243e-25)
(0.0135318 6.97794e-06 1.27424e-25)
(0.0134913 8.66514e-06 0)
(0.0134604 1.04686e-05 1.1073e-22)
(0.0134164 1.26062e-05 1.41286e-22)
(0.0133635 1.42983e-05 0)
(0.0133022 1.60446e-05 0)
(0.0132305 1.76134e-05 2.33915e-22)
(0.0131506 1.89636e-05 2.72991e-22)
(0.0130633 2.01121e-05 2.85288e-22)
(0.01297 2.10472e-05 0)
(0.0128715 2.178e-05 7.00826e-22)
(0.0127698 2.22778e-05 0)
(0.0126659 2.25838e-05 4.0146e-22)
(0.012561 2.26457e-05 -4.24647e-22)
(0.0124565 2.2573e-05 -3.89226e-22)
(0.0123529 2.22838e-05 -5.2286e-22)
(0.0122518 2.18716e-05 -4.83526e-22)
(0.0121534 2.13157e-05 0)
(0.012059 2.06361e-05 -5.13226e-22)
(0.0119686 1.9864e-05 0)
(0.0118829 1.90069e-05 5.35031e-22)
(0.0118022 1.80822e-05 5.42999e-22)
(0.011727 1.70873e-05 -3.4405e-23)
(0.0116573 1.60411e-05 -1.2244e-25)
(0.0115934 1.49703e-05 3.46895e-23)
(0.0115354 1.38544e-05 -2.78048e-22)
(0.0114834 1.27364e-05 -3.45695e-23)
(0.0114375 1.15974e-05 -2.41461e-22)
(0.0113978 1.04586e-05 2.90895e-22)
(0.0113642 9.32091e-06 -1.70354e-23)
(0.0113367 8.19047e-06 -1.65565e-23)
(0.0113153 7.06605e-06 1.65713e-23)
(0.0112999 5.95458e-06 1.28873e-22)
(0.0112904 4.8531e-06 2.52041e-22)
(0.0112867 3.77686e-06 0)
(0.0112888 2.71058e-06 1.26811e-22)
(0.0112966 1.66472e-06 1.08431e-22)
(0.0113099 6.3282e-07 -4.90741e-23)
(0.0113286 -3.63315e-07 -6.86186e-24)
(0.0113526 -1.32797e-06 6.32956e-24)
(0.0113817 -2.27075e-06 -6.32359e-24)
(0.0114159 -3.16327e-06 0)
(0.0114548 -4.0287e-06 0)
(0.0114981 -4.83863e-06 0)
(0.0115456 -5.61536e-06 -1.99213e-23)
(0.0115968 -6.37481e-06 0)
(0.0116518 -7.13967e-06 8.94712e-24)
(0.0117105 -7.88378e-06 -2.61078e-25)
(0.0117728 -8.59516e-06 4.41195e-25)
(0.0118384 -9.27357e-06 3.59681e-25)
(0.0119072 -9.91884e-06 6.37103e-25)
(0.0119786 -1.05255e-05 -1.43364e-24)
(0.0120526 -1.10953e-05 -1.90338e-23)
(0.0121287 -1.16209e-05 0)
(0.0122067 -1.21091e-05 -1.5755e-24)
(0.0122862 -1.25528e-05 3.12153e-25)
(0.012367 -1.29569e-05 1.0083e-23)
(0.0124486 -1.33097e-05 6.37097e-24)
(0.0125309 -1.36366e-05 -3.50365e-25)
(0.0126134 -1.39037e-05 2.27514e-25)
(0.0126957 -1.41413e-05 1.42858e-24)
(0.0127775 -1.43368e-05 -9.8353e-25)
(0.0128582 -1.44768e-05 9.81828e-25)
(0.0129378 -1.45863e-05 2.0135e-24)
(0.0130158 -1.46571e-05 -4.06282e-23)
(0.013092 -1.46976e-05 2.49311e-24)
(0.0131658 -1.46942e-05 -5.09035e-23)
(0.0132373 -1.46663e-05 5.01001e-23)
(0.013306 -1.46062e-05 -7.89632e-25)
(0.0133718 -1.45267e-05 8.38762e-24)
(0.0134344 -1.4421e-05 0)
(0.0134937 -1.43007e-05 1.72238e-22)
(0.0135494 -1.41702e-05 -1.04028e-23)
(0.0136017 -1.40273e-05 0)
(0.0136503 -1.38681e-05 9.36364e-23)
(0.0136951 -1.37159e-05 -9.69111e-23)
(0.0137362 -1.35435e-05 1.99302e-22)
(0.0137734 -1.34028e-05 0)
(0.013807 -1.31997e-05 2.33155e-22)
(0.0138364 -1.3028e-05 2.09625e-22)
(0.0138621 -1.28104e-05 -2.36617e-22)
(0.0138837 -1.25816e-05 0)
(0.0139014 -1.2314e-05 -2.21822e-22)
(0.013915 -1.20035e-05 -1.93138e-22)
(0.0139243 -1.16215e-05 2.14431e-22)
(0.0139289 -1.11957e-05 3.80367e-22)
(0.0139287 -1.06644e-05 -1.83515e-22)
(0.0139234 -1.00664e-05 -5.77336e-24)
(0.0139123 -9.27588e-06 1.70318e-22)
(0.0138948 -8.37653e-06 -1.59541e-22)
(0.0138717 -7.37828e-06 -1.43537e-22)
(0.0138422 -6.08731e-06 0)
(0.013807 -4.8411e-06 -1.1069e-22)
(0.0137676 -3.05767e-06 -9.56326e-25)
(0.0137223 -1.27623e-06 -6.47951e-25)
(0.0136806 -4.93292e-08 -3.78947e-29)
(0.0136516 -1.26199e-07 -2.8421e-26)
(0.0159162 7.97811e-06 -7.60223e-29)
(0.0158453 7.90843e-06 7.63303e-29)
(0.0158071 1.11445e-05 -2.29934e-23)
(0.0157565 1.3723e-05 -6.81531e-23)
(0.0157153 1.62408e-05 9.37441e-23)
(0.0156619 1.91589e-05 -2.38708e-22)
(0.0155997 2.16043e-05 0)
(0.0155294 2.40256e-05 3.41247e-22)
(0.0154491 2.62206e-05 3.98577e-22)
(0.0153609 2.81057e-05 -2.27576e-22)
(0.0152658 2.97074e-05 -4.90474e-22)
(0.0151651 3.09954e-05 -5.5479e-22)
(0.01506 3.19969e-05 -8.55342e-22)
(0.0149521 3.26658e-05 0)
(0.0148427 3.30541e-05 3.31826e-22)
(0.0147329 3.31105e-05 4.4801e-23)
(0.0146241 3.29458e-05 3.22275e-22)
(0.014517 3.24895e-05 -4.86275e-23)
(0.0144129 3.18396e-05 4.95187e-22)
(0.0143125 3.09901e-05 -8.67049e-22)
(0.0142166 2.99601e-05 4.18958e-22)
(0.0141255 2.87932e-05 -5.39088e-23)
(0.0140398 2.75008e-05 -3.81282e-22)
(0.0139598 2.61087e-05 -8.26734e-22)
(0.0138859 2.46154e-05 -5.54324e-23)
(0.0138182 2.3049e-05 4.4813e-22)
(0.0137569 2.14403e-05 -2.808e-23)
(0.0137022 1.97707e-05 4.7762e-22)
(0.013654 1.80927e-05 -4.48137e-22)
(0.0136125 1.63867e-05 -2.7713e-23)
(0.0135778 1.46786e-05 -4.13858e-22)
(0.0135497 1.2971e-05 0)
(0.0135283 1.12726e-05 0)
(0.0135134 9.58374e-06 1.30844e-23)
(0.0135052 7.91263e-06 -2.76383e-25)
(0.0135033 6.25673e-06 -4.05524e-22)
(0.0135077 4.63774e-06 -1.25027e-23)
(0.0135185 3.03708e-06 1.92e-22)
(0.0135354 1.46732e-06 -1.86101e-22)
(0.0135582 -7.79674e-08 0)
(0.0135868 -1.57045e-06 8.13283e-23)
(0.013621 -3.01749e-06 5.30547e-24)
(0.0136607 -4.42662e-06 4.86203e-24)
(0.0137057 -5.76539e-06 -4.85844e-24)
(0.0137558 -7.06201e-06 -2.19308e-24)
(0.0138106 -8.28199e-06 4.26095e-24)
(0.0138701 -9.45398e-06 3.00395e-23)
(0.0139339 -1.05973e-05 9.08198e-25)
(0.0140018 -1.17301e-05 -9.05967e-25)
(0.0140736 -1.28234e-05 -1.94661e-25)
(0.0141489 -1.38648e-05 1.94527e-25)
(0.0142276 -1.48525e-05 0)
(0.0143094 -1.57876e-05 1.96518e-23)
(0.0143937 -1.66619e-05 0)
(0.0144805 -1.74771e-05 1.54295e-23)
(0.0145692 -1.82248e-05 -2.66909e-23)
(0.0146595 -1.89118e-05 0)
(0.0147511 -1.95317e-05 -1.84373e-23)
(0.0148436 -2.00886e-05 7.74607e-25)
(0.0149366 -2.05684e-05 -7.73985e-25)
(0.0150298 -2.1003e-05 -1.30091e-23)
(0.0151227 -2.13522e-05 -5.37066e-24)
(0.015215 -2.16498e-05 0)
(0.0153061 -2.1885e-05 -8.02876e-25)
(0.0153957 -2.20403e-05 1.83655e-23)
(0.0154835 -2.21461e-05 -1.23326e-24)
(0.0155691 -2.21937e-05 9.30083e-23)
(0.0156521 -2.21948e-05 -8.95655e-24)
(0.0157321 -2.21324e-05 -7.88347e-23)
(0.0158089 -2.20307e-05 -6.2786e-24)
(0.0158822 -2.18818e-05 6.27768e-24)
(0.0159518 -2.17004e-05 0)
(0.0160173 -2.14828e-05 -1.17181e-22)
(0.0160786 -2.12437e-05 -1.50755e-22)
(0.0161356 -2.09892e-05 8.6218e-24)
(0.0161882 -2.07161e-05 0)
(0.0162363 -2.04202e-05 3.30853e-22)
(0.0162797 -2.01247e-05 -4.02447e-23)
(0.0163183 -1.98044e-05 -2.90453e-22)
(0.0163522 -1.95073e-05 -4.24288e-23)
(0.0163812 -1.9142e-05 2.14251e-23)
(0.016405 -1.87925e-05 2.19669e-23)
(0.016424 -1.83864e-05 -3.744e-22)
(0.0164377 -1.79503e-05 0)
(0.0164463 -1.74548e-05 3.29057e-22)
(0.0164495 -1.6891e-05 2.05948e-22)
(0.0164471 -1.62277e-05 -2.12336e-23)
(0.0164387 -1.54867e-05 -1.55248e-22)
(0.0164243 -1.46019e-05 1.502e-22)
(0.0164034 -1.36067e-05 9.77174e-24)
(0.0163755 -1.2374e-05 -1.4433e-22)
(0.0163401 -1.09752e-05 4.03123e-22)
(0.016298 -9.43414e-06 0)
(0.016249 -7.5478e-06 0)
(0.0161938 -5.64894e-06 9.56465e-23)
(0.0161348 -3.19887e-06 -7.90279e-23)
(0.0160714 -7.24493e-07 -5.53201e-25)
(0.0160131 1.16796e-06 3.24015e-29)
(0.0159674 1.73025e-06 -2.44757e-26)
(0.0177958 1.16406e-05 0)
(0.017711 1.24539e-05 -1.71131e-23)
(0.0176579 1.6429e-05 1.07956e-25)
(0.0175942 1.9988e-05 -5.80583e-23)
(0.0175392 2.32726e-05 -3.15976e-22)
(0.0174731 2.69888e-05 2.00017e-22)
(0.0173987 3.02228e-05 2.44701e-22)
(0.0173168 3.33274e-05 -2.87363e-22)
(0.0172257 3.61472e-05 -3.28102e-22)
(0.0171276 3.85577e-05 -1.21479e-23)
(0.0170235 4.05951e-05 4.20523e-22)
(0.0169149 4.22098e-05 4.46336e-22)
(0.0168029 4.34454e-05 5.13633e-22)
(0.0166892 4.42444e-05 -3.12067e-23)
(0.0165749 4.46664e-05 -5.48418e-22)
(0.0164612 4.46664e-05 -5.7782e-22)
(0.0163495 4.435e-05 -6.0491e-22)
(0.0162403 4.36652e-05 4.00149e-23)
(0.016135 4.27082e-05 -4.00319e-23)
(0.0160342 4.14925e-05 7.13104e-22)
(0.0159388 4.00372e-05 6.44848e-22)
(0.0158491 3.8398e-05 0)
(0.0157654 3.65904e-05 0)
(0.0156882 3.46491e-05 3.60985e-22)
(0.0156177 3.25756e-05 -4.56514e-23)
(0.0155541 3.04067e-05 -3.66576e-22)
(0.0154976 2.81765e-05 6.88272e-23)
(0.0154482 2.58711e-05 7.11566e-22)
(0.015406 2.35498e-05 3.433e-22)
(0.015371 2.1194e-05 4.09362e-22)
(0.0153433 1.88337e-05 6.76362e-22)
(0.0153227 1.64741e-05 3.56858e-22)
(0.0153092 1.41268e-05 3.73652e-22)
(0.0153028 1.17949e-05 -3.67023e-22)
(0.0153034 9.48738e-06 2.13984e-23)
(0.0153108 7.20139e-06 4.87049e-22)
(0.0153249 4.96409e-06 1.02348e-23)
(0.0153455 2.75698e-06 -1.57267e-22)
(0.0153726 5.94867e-07 2.95719e-22)
(0.015406 -1.52869e-06 -1.38163e-22)
(0.0154453 -3.58111e-06 -7.11177e-23)
(0.0154905 -5.57191e-06 1.32537e-22)
(0.0155414 -7.50607e-06 8.1806e-24)
(0.0155977 -9.35009e-06 -3.99874e-24)
(0.0156592 -1.11362e-05 5.94067e-23)
(0.0157258 -1.28275e-05 -5.6242e-23)
(0.0157971 -1.44491e-05 -2.64942e-23)
(0.0158731 -1.60156e-05 0)
(0.0159534 -1.75483e-05 -1.75541e-23)
(0.0160374 -1.90216e-05 1.74401e-25)
(0.0161249 -2.04202e-05 9.88109e-24)
(0.0162156 -2.17399e-05 0)
(0.0163091 -2.2983e-05 8.43416e-27)
(0.016405 -2.41389e-05 0)
(0.0165031 -2.52091e-05 0)
(0.0166028 -2.61846e-05 4.43698e-23)
(0.0167038 -2.70716e-05 1.876e-23)
(0.0168057 -2.78648e-05 1.53426e-23)
(0.0169081 -2.85672e-05 2.40039e-23)
(0.0170106 -2.91636e-05 1.65019e-23)
(0.0171127 -2.96902e-05 2.26188e-23)
(0.0172141 -3.01038e-05 4.39661e-24)
(0.0173142 -3.04392e-05 -3.0215e-24)
(0.0174127 -3.06883e-05 -1.58057e-23)
(0.0175092 -3.08316e-05 -4.09293e-23)
(0.0176032 -3.09025e-05 -3.8636e-23)
(0.0176944 -3.08932e-05 -4.96668e-23)
(0.0177824 -3.08184e-05 4.07429e-24)
(0.0178668 -3.0659e-05 1.3641e-22)
(0.0179473 -3.04424e-05 7.98151e-23)
(0.0180236 -3.01627e-05 0)
(0.0180955 -2.98384e-05 2.01243e-22)
(0.0181627 -2.94691e-05 3.23564e-22)
(0.0182251 -2.90685e-05 -1.36389e-23)
(0.0182825 -2.86433e-05 -1.53277e-23)
(0.0183348 -2.81923e-05 -7.26468e-25)
(0.0183817 -2.77113e-05 -2.46391e-22)
(0.0184232 -2.72214e-05 0)
(0.0184592 -2.66995e-05 2.80444e-22)
(0.0184893 -2.61846e-05 1.81239e-23)
(0.0185139 -2.55969e-05 2.84807e-25)
(0.0185322 -2.50015e-05 -3.70081e-23)
(0.0185447 -2.43379e-05 3.17238e-22)
(0.0185509 -2.36192e-05 3.17695e-22)
(0.0185509 -2.28172e-05 -6.14048e-22)
(0.0185445 -2.19175e-05 -1.82398e-23)
(0.0185313 -2.08886e-05 3.07427e-22)
(0.0185111 -1.9743e-05 -2.81862e-22)
(0.0184837 -1.84154e-05 0)
(0.0184487 -1.69304e-05 -3.957e-24)
(0.0184057 -1.51697e-05 2.41857e-25)
(0.0183544 -1.31857e-05 -2.25414e-22)
(0.0182954 -1.10168e-05 0)
(0.018229 -8.4671e-06 1.877e-22)
(0.0181563 -5.84309e-06 -1.16964e-24)
(0.0180799 -2.69072e-06 6.91847e-23)
(0.0179997 5.50647e-07 0)
(0.017925 3.23089e-06 0)
(0.0178624 4.60249e-06 2.0885e-26)
(0.0193343 1.62945e-05 -3.46258e-26)
(0.0192354 1.81443e-05 7.77629e-26)
(0.0191669 2.28814e-05 -6.53684e-23)
(0.0190892 2.74716e-05 1.98609e-22)
(0.0190194 3.15578e-05 1.35231e-22)
(0.0189397 3.60743e-05 -3.41608e-22)
(0.0188526 4.00988e-05 -2.07167e-22)
(0.0187591 4.38727e-05 4.84378e-22)
(0.0186576 4.72934e-05 -5.63352e-22)
(0.0185503 5.0198e-05 6.31332e-22)
(0.0184383 5.26313e-05 1.12502e-23)
(0.0183229 5.45243e-05 -3.56419e-23)
(0.0182055 5.59371e-05 2.43731e-23)
(0.0180876 5.68069e-05 0)
(0.0179704 5.72005e-05 -9.4913e-22)
(0.017855 5.70837e-05 5.13818e-22)
(0.0177425 5.65521e-05 5.06896e-22)
(0.0176335 5.55735e-05 3.352e-23)
(0.0175293 5.42385e-05 1.023e-21)
(0.0174304 5.25818e-05 3.46077e-23)
(0.0173378 5.06247e-05 -5.75672e-22)
(0.0172517 4.84352e-05 5.87436e-22)
(0.0171724 4.60334e-05 0)
(0.0171002 4.34629e-05 0)
(0.0170355 4.07297e-05 0)
(0.0169782 3.78785e-05 0)
(0.0169286 3.49467e-05 0)
(0.0168866 3.19268e-05 -6.54678e-22)
(0.0168523 2.88827e-05 3.84841e-23)
(0.0168257 2.57994e-05 -3.05573e-22)
(0.0168067 2.271e-05 -3.21897e-22)
(0.0167953 1.96225e-05 -8.80546e-22)
(0.0167915 1.65508e-05 -2.95764e-22)
(0.016795 1.35012e-05 5.82084e-22)
(0.0168057 1.04848e-05 0)
(0.0168235 7.5006e-06 -2.79572e-22)
(0.0168483 4.57892e-06 2.72949e-22)
(0.0168798 1.70234e-06 2.65718e-22)
(0.0169178 -1.11245e-06 -1.36875e-22)
(0.0169623 -3.8712e-06 1.32745e-22)
(0.0170128 -6.53884e-06 7.38047e-24)
(0.0170693 -9.12614e-06 -7.36147e-24)
(0.0171315 -1.16353e-05 -1.11068e-22)
(0.0171992 -1.40334e-05 3.2328e-24)
(0.0172721 -1.63543e-05 -5.67576e-23)
(0.01735 -1.85617e-05 5.08733e-23)
(0.0174326 -2.06808e-05 0)
(0.0175196 -2.27168e-05 -6.38744e-25)
(0.0176105 -2.46793e-05 1.05066e-23)
(0.0177051 -2.65501e-05 -2.86046e-25)
(0.0178029 -2.83189e-05 4.23885e-27)
(0.0179036 -2.9979e-05 -9.15283e-25)
(0.0180068 -3.15336e-05 -1.38148e-23)
(0.0181121 -3.29702e-05 8.23511e-25)
(0.0182191 -3.429e-05 1.27752e-24)
(0.0183275 -3.54837e-05 -2.02425e-23)
(0.0184366 -3.65566e-05 -1.78618e-23)
(0.0185463 -3.75054e-05 1.82479e-24)
(0.0186559 -3.83315e-05 -2.16462e-23)
(0.0187652 -3.90201e-05 -1.37727e-23)
(0.0188736 -3.96092e-05 -2.80301e-23)
(0.0189808 -4.00556e-05 0)
(0.0190862 -4.03937e-05 2.91824e-24)
(0.0191894 -4.06183e-05 1.32973e-23)
(0.01929 -4.071e-05 4.67113e-23)
(0.0193877 -4.07036e-05 3.31523e-23)
(0.019482 -4.05929e-05 -4.25229e-23)
(0.0195726 -4.03955e-05 0)
(0.019659 -4.00916e-05 -6.03185e-23)
(0.019741 -3.9712e-05 6.84903e-23)
(0.0198183 -3.92553e-05 1.42694e-22)
(0.0198906 -3.87416e-05 -3.2475e-22)
(0.0199578 -3.81718e-05 -3.62071e-22)
(0.0200195 -3.75594e-05 0)
(0.0200757 -3.69109e-05 -2.18488e-22)
(0.0201262 -3.62255e-05 1.31684e-23)
(0.0201707 -3.55e-05 0)
(0.0202091 -3.47529e-05 2.33803e-22)
(0.0202412 -3.39654e-05 1.52471e-23)
(0.0202669 -3.31646e-05 3.27397e-25)
(0.0202862 -3.22867e-05 -1.55801e-23)
(0.0202985 -3.13724e-05 5.09736e-22)
(0.0203042 -3.0377e-05 4.97392e-22)
(0.0203028 -2.92976e-05 -2.25055e-22)
(0.0202944 -2.81089e-05 2.39957e-22)
(0.0202787 -2.67907e-05 1.5686e-23)
(0.0202554 -2.53133e-05 -2.6441e-22)
(0.0202241 -2.36788e-05 2.42453e-22)
(0.0201849 -2.18261e-05 0)
(0.0201373 -1.97692e-05 4.48225e-22)
(0.020081 -1.74045e-05 0)
(0.0200156 -1.47629e-05 0)
(0.0199421 -1.18973e-05 0)
(0.0198607 -8.62882e-06 -1.60399e-22)
(0.0197727 -5.22321e-06 -1.1815e-24)
(0.019681 -1.33099e-06 8.14927e-25)
(0.0195855 2.72718e-06 -5.13269e-25)
(0.0194951 6.25887e-06 -3.20461e-23)
(0.0194161 8.55924e-06 -4.79507e-29)
(0.0205997 2.20102e-05 2.99486e-26)
(0.0204882 2.49945e-05 1.25565e-23)
(0.0204058 3.04947e-05 5.64252e-23)
(0.0203153 3.61244e-05 -1.708e-22)
(0.020232 4.10218e-05 1.02992e-24)
(0.0201402 4.63201e-05 2.9206e-22)
(0.0200423 5.11069e-05 -3.53417e-22)
(0.019939 5.55125e-05 -4.18485e-22)
(0.0198293 5.94891e-05 4.77838e-22)
(0.0197151 6.28379e-05 -2.96981e-25)
(0.0195976 6.56119e-05 0)
(0.0194782 6.77241e-05 6.20499e-22)
(0.0193579 6.92466e-05 2.08218e-23)
(0.0192386 7.01161e-05 7.16624e-22)
(0.0191211 7.04085e-05 8.09703e-22)
(0.0190066 7.0105e-05 5.29363e-23)
(0.018896 6.92904e-05 -9.19467e-22)
(0.0187898 6.79524e-05 9.01816e-22)
(0.0186893 6.61739e-05 -9.33753e-22)
(0.0185947 6.40048e-05 9.61826e-22)
(0.0185072 6.14685e-05 -9.86394e-22)
(0.0184268 5.8651e-05 -5.03674e-22)
(0.0183539 5.5577e-05 1.05698e-21)
(0.0182887 5.22989e-05 3.31977e-25)
(0.0182314 4.88284e-05 -3.26522e-23)
(0.0181822 4.52178e-05 0)
(0.018141 4.15076e-05 0)
(0.0181078 3.76979e-05 -5.30873e-22)
(0.0180827 3.38557e-05 -4.96855e-22)
(0.0180656 2.99709e-05 -6.58751e-23)
(0.0180565 2.60803e-05 3.2872e-23)
(0.0180551 2.21953e-05 5.18196e-22)
(0.0180615 1.83324e-05 -1.58521e-23)
(0.0180754 1.45011e-05 -2.3604e-22)
(0.0180967 1.07151e-05 0)
(0.0181251 6.97525e-06 0)
(0.0181605 3.31469e-06 -4.88169e-22)
(0.0182027 -2.82482e-07 -2.01827e-22)
(0.0182515 -3.79809e-06 2.16759e-22)