/*--------------------------------*- C++ -*----------------------------------*\
| =========                 |                                                 |
| \\      /  F ield         | OpenFOAM: The Open Source CFD Toolbox           |
|  \\    /   O peration     | Version:  2006                                  |
|   \\  /    A nd           | Website:  www.openfoam.com                      |
|    \\/     M anipulation  |                                                 |
\*---------------------------------------------------------------------------*/
FoamFile
{
    version     2.0;
    format      ascii;
    class       volVectorField;
    location    "20000";
    object      C;
}
// * * * * * * * * * * * * * * * * * * * * * * * * * * * * * * * * * * * * * //

dimensions      [0 1 0 0 0 0 0];


internalField   nonuniform List<vector> 
14751
(
(9.72225 3.034 0.05)
(9.62355 3.034 0.05)
(9.52484 3.034 0.05)
(9.42614 3.034 0.05)
(9.32744 3.034 0.05)
(9.22873 3.034 0.05)
(9.13003 3.034 0.05)
(9.03133 3.034 0.05)
(8.93262 3.034 0.05)
(8.83392 3.034 0.05)
(8.73522 3.034 0.05)
(8.63652 3.034 0.05)
(8.53781 3.034 0.05)
(8.43911 3.034 0.05)
(8.34041 3.034 0.05)
(8.2417 3.034 0.05)
(8.143 3.034 0.05)
(8.0443 3.034 0.05)
(7.94559 3.034 0.05)
(7.84689 3.034 0.05)
(7.74819 3.034 0.05)
(7.64948 3.034 0.05)
(7.55078 3.034 0.05)
(7.45208 3.034 0.05)
(7.35338 3.034 0.05)
(7.25467 3.034 0.05)
(7.15597 3.034 0.05)
(7.05727 3.034 0.05)
(6.95856 3.034 0.05)
(6.85986 3.034 0.05)
(6.76116 3.034 0.05)
(6.66245 3.034 0.05)
(6.56375 3.034 0.05)
(6.46505 3.034 0.05)
(6.36635 3.034 0.05)
(6.26764 3.034 0.05)
(6.16894 3.034 0.05)
(6.07024 3.034 0.05)
(5.97153 3.034 0.05)
(5.87283 3.034 0.05)
(5.77413 3.034 0.05)
(5.67542 3.034 0.05)
(5.57672 3.034 0.05)
(5.47802 3.034 0.05)
(5.37931 3.034 0.05)
(5.28061 3.034 0.05)
(5.18191 3.034 0.05)
(5.08321 3.034 0.05)
(4.9845 3.034 0.05)
(4.8858 3.034 0.05)
(4.7871 3.034 0.05)
(4.68839 3.034 0.05)
(4.58969 3.034 0.05)
(4.49099 3.034 0.05)
(4.39228 3.034 0.05)
(4.29358 3.034 0.05)
(4.19488 3.034 0.05)
(4.09618 3.034 0.05)
(3.99747 3.034 0.05)
(3.89877 3.034 0.05)
(3.80007 3.034 0.05)
(3.70136 3.034 0.05)
(3.60266 3.034 0.05)
(3.50396 3.034 0.05)
(3.40525 3.034 0.05)
(3.30655 3.034 0.05)
(3.20785 3.034 0.05)
(3.10915 3.034 0.05)
(3.01044 3.034 0.05)
(2.91174 3.034 0.05)
(2.81304 3.034 0.05)
(2.71433 3.034 0.05)
(2.61563 3.034 0.05)
(2.51693 3.034 0.05)
(2.41822 3.034 0.05)
(2.31952 3.034 0.05)
(2.22082 3.034 0.05)
(2.12211 3.034 0.05)
(2.02341 3.034 0.05)
(1.92471 3.034 0.05)
(1.82601 3.034 0.05)
(1.7273 3.034 0.05)
(1.6286 3.034 0.05)
(1.5299 3.034 0.05)
(1.43119 3.034 0.05)
(1.33249 3.034 0.05)
(1.23379 3.034 0.05)
(1.13509 3.034 0.05)
(1.03638 3.034 0.05)
(0.937679 3.034 0.05)
(0.838976 3.034 0.05)
(0.740273 3.034 0.05)
(0.64157 3.034 0.05)
(0.542867 3.034 0.05)
(0.444164 3.034 0.05)
(0.34546 3.034 0.05)
(0.246757 3.034 0.05)
(0.148054 3.034 0.05)
(0.0493513 3.034 0.05)
(9.72224 3.02991 0.05)
(9.62354 3.02991 0.05)
(9.52483 3.02991 0.05)
(9.42612 3.0299 0.05)
(9.32741 3.02989 0.05)
(9.2287 3.02988 0.05)
(9.12999 3.02987 0.05)
(9.03129 3.02986 0.05)
(8.93258 3.02985 0.05)
(8.83388 3.02984 0.05)
(8.73517 3.02983 0.05)
(8.63647 3.02982 0.05)
(8.53776 3.02981 0.05)
(8.43906 3.0298 0.05)
(8.34035 3.02979 0.05)
(8.24165 3.02978 0.05)
(8.14295 3.02977 0.05)
(8.04424 3.02976 0.05)
(7.94554 3.02975 0.05)
(7.84684 3.02975 0.05)
(7.74814 3.02974 0.05)
(7.64944 3.02973 0.05)
(7.55074 3.02972 0.05)
(7.45204 3.02971 0.05)
(7.35334 3.02971 0.05)
(7.25464 3.0297 0.05)
(7.15594 3.0297 0.05)
(7.05724 3.02969 0.05)
(6.95854 3.02969 0.05)
(6.85983 3.02968 0.05)
(6.76113 3.02968 0.05)
(6.66243 3.02967 0.05)
(6.56373 3.02967 0.05)
(6.46503 3.02966 0.05)
(6.36633 3.02966 0.05)
(6.26763 3.02966 0.05)
(6.16893 3.02966 0.05)
(6.07022 3.02965 0.05)
(5.97152 3.02965 0.05)
(5.87282 3.02965 0.05)
(5.77412 3.02965 0.05)
(5.67542 3.02964 0.05)
(5.57671 3.02964 0.05)
(5.47801 3.02964 0.05)
(5.37931 3.02964 0.05)
(5.28061 3.02964 0.05)
(5.18191 3.02964 0.05)
(5.0832 3.02964 0.05)
(4.9845 3.02964 0.05)
(4.8858 3.02964 0.05)
(4.7871 3.02964 0.05)
(4.6884 3.02964 0.05)
(4.58969 3.02964 0.05)
(4.49099 3.02964 0.05)
(4.39229 3.02964 0.05)
(4.29359 3.02964 0.05)
(4.19488 3.02964 0.05)
(4.09618 3.02964 0.05)
(3.99748 3.02965 0.05)
(3.89878 3.02965 0.05)
(3.80008 3.02965 0.05)
(3.70138 3.02965 0.05)
(3.60267 3.02966 0.05)
(3.50397 3.02966 0.05)
(3.40527 3.02966 0.05)
(3.30657 3.02966 0.05)
(3.20787 3.02967 0.05)
(3.10917 3.02967 0.05)
(3.01047 3.02968 0.05)
(2.91176 3.02968 0.05)
(2.81306 3.02968 0.05)
(2.71436 3.02969 0.05)
(2.61566 3.0297 0.05)
(2.51696 3.0297 0.05)
(2.41826 3.02971 0.05)
(2.31956 3.02971 0.05)
(2.22086 3.02972 0.05)
(2.12216 3.02973 0.05)
(2.02346 3.02973 0.05)
(1.92476 3.02974 0.05)
(1.82606 3.02975 0.05)
(1.72736 3.02976 0.05)
(1.62865 3.02977 0.05)
(1.52995 3.02978 0.05)
(1.43125 3.02979 0.05)
(1.33254 3.0298 0.05)
(1.23384 3.02981 0.05)
(1.13513 3.02982 0.05)
(1.03643 3.02983 0.05)
(0.937724 3.02984 0.05)
(0.839019 3.02985 0.05)
(0.740313 3.02986 0.05)
(0.641605 3.02987 0.05)
(0.542899 3.02988 0.05)
(0.444191 3.02989 0.05)
(0.345486 3.0299 0.05)
(0.246778 3.0299 0.05)
(0.148067 3.02991 0.05)
(0.0493515 3.02991 0.05)
(9.72224 3.02564 0.05)
(9.62353 3.02563 0.05)
(9.52482 3.02562 0.05)
(9.42611 3.02559 0.05)
(9.3274 3.02556 0.05)
(9.22869 3.02553 0.05)
(9.12998 3.02549 0.05)
(9.03126 3.02546 0.05)
(8.93255 3.02542 0.05)
(8.83383 3.02538 0.05)
(8.73512 3.02534 0.05)
(8.63641 3.0253 0.05)
(8.5377 3.02526 0.05)
(8.43899 3.02522 0.05)
(8.34028 3.02518 0.05)
(8.24157 3.02515 0.05)
(8.14287 3.02511 0.05)
(8.04416 3.02507 0.05)
(7.94546 3.02504 0.05)
(7.84676 3.02501 0.05)
(7.74806 3.02497 0.05)
(7.64937 3.02494 0.05)
(7.55067 3.02492 0.05)
(7.45198 3.02489 0.05)
(7.35328 3.02486 0.05)
(7.25458 3.02484 0.05)
(7.15589 3.02482 0.05)
(7.05719 3.02479 0.05)
(6.95849 3.02477 0.05)
(6.8598 3.02476 0.05)
(6.7611 3.02474 0.05)
(6.6624 3.02472 0.05)
(6.5637 3.02471 0.05)
(6.465 3.02469 0.05)
(6.36631 3.02468 0.05)
(6.26761 3.02467 0.05)
(6.16891 3.02466 0.05)
(6.07021 3.02465 0.05)
(5.97151 3.02464 0.05)
(5.87281 3.02464 0.05)
(5.77411 3.02463 0.05)
(5.67541 3.02462 0.05)
(5.57671 3.02462 0.05)
(5.47801 3.02461 0.05)
(5.3793 3.02461 0.05)
(5.2806 3.02461 0.05)
(5.1819 3.0246 0.05)
(5.0832 3.0246 0.05)
(4.9845 3.0246 0.05)
(4.8858 3.0246 0.05)
(4.7871 3.0246 0.05)
(4.6884 3.0246 0.05)
(4.5897 3.0246 0.05)
(4.491 3.0246 0.05)
(4.39229 3.02461 0.05)
(4.29359 3.02461 0.05)
(4.19489 3.02462 0.05)
(4.09619 3.02462 0.05)
(3.99749 3.02463 0.05)
(3.89879 3.02463 0.05)
(3.80009 3.02464 0.05)
(3.70139 3.02465 0.05)
(3.60269 3.02466 0.05)
(3.50399 3.02467 0.05)
(3.40529 3.02468 0.05)
(3.3066 3.02469 0.05)
(3.2079 3.02471 0.05)
(3.1092 3.02472 0.05)
(3.0105 3.02474 0.05)
(2.9118 3.02475 0.05)
(2.81311 3.02477 0.05)
(2.71441 3.02479 0.05)
(2.61571 3.02481 0.05)
(2.51702 3.02484 0.05)
(2.41832 3.02486 0.05)
(2.31962 3.02489 0.05)
(2.22093 3.02491 0.05)
(2.12223 3.02494 0.05)
(2.02354 3.02497 0.05)
(1.92484 3.025 0.05)
(1.82614 3.02503 0.05)
(1.72744 3.02507 0.05)
(1.62873 3.0251 0.05)
(1.53003 3.02514 0.05)
(1.43132 3.02518 0.05)
(1.33261 3.02522 0.05)
(1.2339 3.02525 0.05)
(1.13519 3.02529 0.05)
(1.03648 3.02533 0.05)
(0.937768 3.02537 0.05)
(0.839055 3.02541 0.05)
(0.740341 3.02545 0.05)
(0.641625 3.02549 0.05)
(0.542913 3.02553 0.05)
(0.444201 3.02556 0.05)
(0.345495 3.02559 0.05)
(0.246787 3.02562 0.05)
(0.148074 3.02563 0.05)
(0.0493514 3.02564 0.05)
(9.72224 3.02117 0.05)
(9.62353 3.02116 0.05)
(9.52482 3.02113 0.05)
(9.42611 3.02108 0.05)
(9.3274 3.02102 0.05)
(9.22869 3.02095 0.05)
(9.12997 3.02088 0.05)
(9.03124 3.02079 0.05)
(8.93252 3.02071 0.05)
(8.83379 3.02063 0.05)
(8.73507 3.02054 0.05)
(8.63635 3.02046 0.05)
(8.53763 3.02038 0.05)
(8.43891 3.02029 0.05)
(8.34019 3.02021 0.05)
(8.24148 3.02013 0.05)
(8.14276 3.02006 0.05)
(8.04406 3.01998 0.05)
(7.94535 3.01991 0.05)
(7.84665 3.01984 0.05)
(7.74796 3.01977 0.05)
(7.64927 3.0197 0.05)
(7.55058 3.01964 0.05)
(7.45189 3.01958 0.05)
(7.3532 3.01953 0.05)
(7.25451 3.01947 0.05)
(7.15582 3.01942 0.05)
(7.05713 3.01938 0.05)
(6.95844 3.01934 0.05)
(6.85974 3.0193 0.05)
(6.76105 3.01926 0.05)
(6.66236 3.01922 0.05)
(6.56366 3.01919 0.05)
(6.46497 3.01916 0.05)
(6.36627 3.01914 0.05)
(6.26758 3.01911 0.05)
(6.16888 3.01909 0.05)
(6.07018 3.01907 0.05)
(5.97149 3.01905 0.05)
(5.87279 3.01903 0.05)
(5.77409 3.01902 0.05)
(5.67539 3.01901 0.05)
(5.57669 3.019 0.05)
(5.478 3.01899 0.05)
(5.3793 3.01898 0.05)
(5.2806 3.01897 0.05)
(5.1819 3.01897 0.05)
(5.0832 3.01896 0.05)
(4.9845 3.01896 0.05)
(4.8858 3.01896 0.05)
(4.7871 3.01896 0.05)
(4.6884 3.01896 0.05)
(4.5897 3.01897 0.05)
(4.491 3.01897 0.05)
(4.3923 3.01898 0.05)
(4.2936 3.01898 0.05)
(4.19491 3.01899 0.05)
(4.09621 3.019 0.05)
(3.99751 3.01902 0.05)
(3.89881 3.01903 0.05)
(3.80011 3.01905 0.05)
(3.70142 3.01907 0.05)
(3.60272 3.01909 0.05)
(3.50402 3.01911 0.05)
(3.40533 3.01913 0.05)
(3.30663 3.01916 0.05)
(3.20794 3.01919 0.05)
(3.10924 3.01922 0.05)
(3.01055 3.01925 0.05)
(2.91185 3.01929 0.05)
(2.81316 3.01933 0.05)
(2.71447 3.01937 0.05)
(2.61578 3.01942 0.05)
(2.51709 3.01947 0.05)
(2.4184 3.01952 0.05)
(2.31971 3.01958 0.05)
(2.22102 3.01963 0.05)
(2.12233 3.01969 0.05)
(2.02364 3.01976 0.05)
(1.92495 3.01983 0.05)
(1.82625 3.0199 0.05)
(1.72755 3.01997 0.05)
(1.62884 3.02005 0.05)
(1.53013 3.02012 0.05)
(1.43141 3.0202 0.05)
(1.33269 3.02029 0.05)
(1.23397 3.02037 0.05)
(1.13525 3.02045 0.05)
(1.03653 3.02054 0.05)
(0.937811 3.02062 0.05)
(0.839087 3.0207 0.05)
(0.740361 3.02079 0.05)
(0.641633 3.02087 0.05)
(0.542913 3.02094 0.05)
(0.444197 3.02101 0.05)
(0.345493 3.02108 0.05)
(0.246789 3.02113 0.05)
(0.148078 3.02116 0.05)
(0.0493516 3.02117 0.05)
(9.72224 3.01651 0.05)
(9.62353 3.01648 0.05)
(9.52482 3.01644 0.05)
(9.42612 3.01636 0.05)
(9.32742 3.01626 0.05)
(9.2287 3.01614 0.05)
(9.12997 3.01602 0.05)
(9.03123 3.01588 0.05)
(8.93249 3.01575 0.05)
(8.83375 3.01561 0.05)
(8.73501 3.01546 0.05)
(8.63628 3.01532 0.05)
(8.53755 3.01518 0.05)
(8.43882 3.01505 0.05)
(8.34009 3.01491 0.05)
(8.24136 3.01477 0.05)
(8.14264 3.01464 0.05)
(8.04392 3.01452 0.05)
(7.94522 3.01439 0.05)
(7.84652 3.01427 0.05)
(7.74783 3.01416 0.05)
(7.64914 3.01405 0.05)
(7.55046 3.01394 0.05)
(7.45178 3.01384 0.05)
(7.3531 3.01375 0.05)
(7.25442 3.01366 0.05)
(7.15574 3.01358 0.05)
(7.05705 3.0135 0.05)
(6.95837 3.01342 0.05)
(6.85968 3.01336 0.05)
(6.76099 3.01329 0.05)
(6.6623 3.01323 0.05)
(6.56361 3.01318 0.05)
(6.46492 3.01313 0.05)
(6.36623 3.01308 0.05)
(6.26754 3.01304 0.05)
(6.16885 3.013 0.05)
(6.07015 3.01297 0.05)
(5.97146 3.01294 0.05)
(5.87277 3.01291 0.05)
(5.77407 3.01289 0.05)
(5.67537 3.01286 0.05)
(5.57668 3.01285 0.05)
(5.47798 3.01283 0.05)
(5.37929 3.01282 0.05)
(5.28059 3.01281 0.05)
(5.18189 3.0128 0.05)
(5.08319 3.01279 0.05)
(4.9845 3.01279 0.05)
(4.8858 3.01279 0.05)
(4.7871 3.01279 0.05)
(4.6884 3.01279 0.05)
(4.58971 3.0128 0.05)
(4.49101 3.0128 0.05)
(4.39231 3.01281 0.05)
(4.29362 3.01283 0.05)
(4.19492 3.01284 0.05)
(4.09622 3.01286 0.05)
(3.99753 3.01288 0.05)
(3.89883 3.01291 0.05)
(3.80014 3.01293 0.05)
(3.70144 3.01297 0.05)
(3.60275 3.013 0.05)
(3.50406 3.01304 0.05)
(3.40537 3.01308 0.05)
(3.30668 3.01312 0.05)
(3.20798 3.01317 0.05)
(3.1093 3.01323 0.05)
(3.01061 3.01329 0.05)
(2.91192 3.01335 0.05)
(2.81323 3.01342 0.05)
(2.71455 3.01349 0.05)
(2.61586 3.01357 0.05)
(2.51718 3.01365 0.05)
(2.4185 3.01374 0.05)
(2.31982 3.01383 0.05)
(2.22114 3.01393 0.05)
(2.12245 3.01404 0.05)
(2.02377 3.01414 0.05)
(1.92508 3.01426 0.05)
(1.82638 3.01438 0.05)
(1.72768 3.0145 0.05)
(1.62897 3.01463 0.05)
(1.53024 3.01476 0.05)
(1.43152 3.0149 0.05)
(1.33279 3.01503 0.05)
(1.23406 3.01517 0.05)
(1.13532 3.01531 0.05)
(1.03659 3.01545 0.05)
(0.937857 3.01559 0.05)
(0.839118 3.01573 0.05)
(0.740375 3.01587 0.05)
(0.641634 3.016 0.05)
(0.542903 3.01613 0.05)
(0.444183 3.01625 0.05)
(0.345483 3.01635 0.05)
(0.246785 3.01643 0.05)
(0.148079 3.01649 0.05)
(0.0493516 3.01651 0.05)
(9.72224 3.01164 0.05)
(9.62353 3.01161 0.05)
(9.52483 3.01153 0.05)
(9.42614 3.01142 0.05)
(9.32744 3.01127 0.05)
(9.22872 3.0111 0.05)
(9.12998 3.01092 0.05)
(9.03122 3.01072 0.05)
(8.93246 3.01052 0.05)
(8.8337 3.01032 0.05)
(8.73495 3.01011 0.05)
(8.6362 3.0099 0.05)
(8.53746 3.00969 0.05)
(8.43871 3.00949 0.05)
(8.33997 3.00929 0.05)
(8.24122 3.00909 0.05)
(8.14249 3.00889 0.05)
(8.04377 3.00871 0.05)
(7.94506 3.00852 0.05)
(7.84636 3.00835 0.05)
(7.74768 3.00817 0.05)
(7.649 3.00801 0.05)
(7.55032 3.00785 0.05)
(7.45165 3.00771 0.05)
(7.35298 3.00757 0.05)
(7.25431 3.00743 0.05)
(7.15563 3.00731 0.05)
(7.05696 3.00719 0.05)
(6.95828 3.00708 0.05)
(6.8596 3.00698 0.05)
(6.76092 3.00688 0.05)
(6.66224 3.0068 0.05)
(6.56355 3.00672 0.05)
(6.46487 3.00664 0.05)
(6.36618 3.00657 0.05)
(6.2675 3.00651 0.05)
(6.16881 3.00645 0.05)
(6.07012 3.0064 0.05)
(5.97143 3.00636 0.05)
(5.87274 3.00632 0.05)
(5.77405 3.00628 0.05)
(5.67535 3.00625 0.05)
(5.57666 3.00622 0.05)
(5.47797 3.00619 0.05)
(5.37927 3.00617 0.05)
(5.28058 3.00616 0.05)
(5.18188 3.00615 0.05)
(5.08319 3.00614 0.05)
(4.98449 3.00613 0.05)
(4.8858 3.00613 0.05)
(4.7871 3.00613 0.05)
(4.68841 3.00614 0.05)
(4.58971 3.00614 0.05)
(4.49102 3.00616 0.05)
(4.39233 3.00617 0.05)
(4.29363 3.00619 0.05)
(4.19494 3.00621 0.05)
(4.09624 3.00624 0.05)
(3.99755 3.00627 0.05)
(3.89886 3.00631 0.05)
(3.80017 3.00635 0.05)
(3.70148 3.0064 0.05)
(3.60279 3.00645 0.05)
(3.5041 3.0065 0.05)
(3.40541 3.00657 0.05)
(3.30673 3.00663 0.05)
(3.20804 3.00671 0.05)
(3.10936 3.00679 0.05)
(3.01068 3.00687 0.05)
(2.912 3.00697 0.05)
(2.81332 3.00707 0.05)
(2.71464 3.00718 0.05)
(2.61596 3.0073 0.05)
(2.51729 3.00742 0.05)
(2.41861 3.00755 0.05)
(2.31994 3.00769 0.05)
(2.22127 3.00784 0.05)
(2.1226 3.00799 0.05)
(2.02392 3.00816 0.05)
(1.92524 3.00833 0.05)
(1.82654 3.0085 0.05)
(1.72783 3.00869 0.05)
(1.62911 3.00888 0.05)
(1.53038 3.00907 0.05)
(1.43164 3.00927 0.05)
(1.3329 3.00947 0.05)
(1.23415 3.00968 0.05)
(1.1354 3.00988 0.05)
(1.03666 3.01009 0.05)
(0.937904 3.0103 0.05)
(0.839148 3.0105 0.05)
(0.740387 3.01071 0.05)
(0.641628 3.0109 0.05)
(0.542885 3.01109 0.05)
(0.444161 3.01126 0.05)
(0.345466 3.01141 0.05)
(0.246777 3.01153 0.05)
(0.148078 3.01162 0.05)
(0.0493515 3.01165 0.05)
(9.72224 3.00656 0.05)
(9.62353 3.00651 0.05)
(9.52484 3.00641 0.05)
(9.42616 3.00626 0.05)
(9.32747 3.00606 0.05)
(9.22875 3.00583 0.05)
(9.12999 3.00558 0.05)
(9.03122 3.00531 0.05)
(8.93244 3.00504 0.05)
(8.83366 3.00476 0.05)
(8.73489 3.00448 0.05)
(8.63612 3.0042 0.05)
(8.53736 3.00392 0.05)
(8.43859 3.00364 0.05)
(8.33983 3.00336 0.05)
(8.24107 3.00309 0.05)
(8.14233 3.00282 0.05)
(8.04359 3.00256 0.05)
(7.94488 3.00231 0.05)
(7.84618 3.00207 0.05)
(7.7475 3.00184 0.05)
(7.64883 3.00161 0.05)
(7.55017 3.0014 0.05)
(7.45151 3.00119 0.05)
(7.35285 3.001 0.05)
(7.25419 3.00082 0.05)
(7.15552 3.00065 0.05)
(7.05685 3.00049 0.05)
(6.95818 3.00034 0.05)
(6.85951 3.0002 0.05)
(6.76084 3.00006 0.05)
(6.66216 2.99994 0.05)
(6.56349 2.99983 0.05)
(6.46481 2.99973 0.05)
(6.36613 2.99964 0.05)
(6.26745 2.99955 0.05)
(6.16876 2.99947 0.05)
(6.07008 2.9994 0.05)
(5.97139 2.99934 0.05)
(5.87271 2.99928 0.05)
(5.77402 2.99923 0.05)
(5.67533 2.99919 0.05)
(5.57664 2.99915 0.05)
(5.47795 2.99911 0.05)
(5.37926 2.99909 0.05)
(5.28057 2.99906 0.05)
(5.18188 2.99905 0.05)
(5.08318 2.99904 0.05)
(4.98449 2.99903 0.05)
(4.8858 2.99902 0.05)
(4.78711 2.99903 0.05)
(4.68841 2.99903 0.05)
(4.58972 2.99905 0.05)
(4.49103 2.99906 0.05)
(4.39234 2.99908 0.05)
(4.29365 2.99911 0.05)
(4.19496 2.99914 0.05)
(4.09627 2.99918 0.05)
(3.99758 2.99922 0.05)
(3.89889 2.99927 0.05)
(3.8002 2.99933 0.05)
(3.70152 2.99939 0.05)
(3.60283 2.99946 0.05)
(3.50415 2.99954 0.05)
(3.40547 2.99963 0.05)
(3.30679 2.99972 0.05)
(3.20811 2.99982 0.05)
(3.10943 2.99993 0.05)
(3.01076 3.00005 0.05)
(2.91208 3.00018 0.05)
(2.81341 3.00032 0.05)
(2.71474 3.00047 0.05)
(2.61608 3.00063 0.05)
(2.51741 3.0008 0.05)
(2.41875 3.00098 0.05)
(2.32009 3.00117 0.05)
(2.22143 3.00138 0.05)
(2.12276 3.00159 0.05)
(2.0241 3.00181 0.05)
(1.92542 3.00205 0.05)
(1.82672 3.00229 0.05)
(1.72801 3.00254 0.05)
(1.62928 3.0028 0.05)
(1.53054 3.00307 0.05)
(1.43178 3.00334 0.05)
(1.33302 3.00361 0.05)
(1.23425 3.00389 0.05)
(1.13549 3.00417 0.05)
(1.03673 3.00446 0.05)
(0.937955 3.00474 0.05)
(0.839178 3.00502 0.05)
(0.740395 3.00529 0.05)
(0.641618 3.00556 0.05)
(0.542862 3.00581 0.05)
(0.444134 3.00604 0.05)
(0.345444 3.00624 0.05)
(0.246766 3.00641 0.05)
(0.148076 3.00652 0.05)
(0.0493515 3.00657 0.05)
(9.72225 3.00125 0.05)
(9.62353 3.0012 0.05)
(9.52485 3.00107 0.05)
(9.42618 3.00087 0.05)
(9.3275 3.00061 0.05)
(9.22878 3.00032 0.05)
(9.13001 3 0.05)
(9.03122 2.99965 0.05)
(8.93241 2.9993 0.05)
(8.83361 2.99894 0.05)
(8.73482 2.99858 0.05)
(8.63603 2.99821 0.05)
(8.53725 2.99785 0.05)
(8.43846 2.99749 0.05)
(8.33968 2.99713 0.05)
(8.24091 2.99678 0.05)
(8.14215 2.99643 0.05)
(8.0434 2.9961 0.05)
(7.94468 2.99577 0.05)
(7.84599 2.99546 0.05)
(7.74731 2.99516 0.05)
(7.64865 2.99486 0.05)
(7.55 2.99459 0.05)
(7.45135 2.99432 0.05)
(7.3527 2.99407 0.05)
(7.25405 2.99383 0.05)
(7.15539 2.99361 0.05)
(7.05674 2.9934 0.05)
(6.95808 2.99321 0.05)
(6.85942 2.99302 0.05)
(6.76075 2.99285 0.05)
(6.66208 2.9927 0.05)
(6.56341 2.99255 0.05)
(6.46474 2.99242 0.05)
(6.36607 2.99229 0.05)
(6.26739 2.99218 0.05)
(6.16871 2.99208 0.05)
(6.07004 2.99199 0.05)
(5.97135 2.99191 0.05)
(5.87267 2.99183 0.05)
(5.77399 2.99177 0.05)
(5.6753 2.99171 0.05)
(5.57662 2.99166 0.05)
(5.47793 2.99162 0.05)
(5.37924 2.99158 0.05)
(5.28056 2.99155 0.05)
(5.18187 2.99153 0.05)
(5.08318 2.99151 0.05)
(4.98449 2.9915 0.05)
(4.8858 2.9915 0.05)
(4.78711 2.9915 0.05)
(4.68842 2.99151 0.05)
(4.58973 2.99153 0.05)
(4.49104 2.99155 0.05)
(4.39235 2.99158 0.05)
(4.29367 2.99161 0.05)
(4.19498 2.99165 0.05)
(4.09629 2.9917 0.05)
(3.99761 2.99176 0.05)
(3.89893 2.99182 0.05)
(3.80024 2.9919 0.05)
(3.70156 2.99198 0.05)
(3.60288 2.99207 0.05)
(3.5042 2.99217 0.05)
(3.40553 2.99228 0.05)
(3.30685 2.9924 0.05)
(3.20818 2.99254 0.05)
(3.10951 2.99268 0.05)
(3.01085 2.99284 0.05)
(2.91218 2.993 0.05)
(2.81352 2.99319 0.05)
(2.71486 2.99338 0.05)
(2.6162 2.99359 0.05)
(2.51755 2.99381 0.05)
(2.41889 2.99405 0.05)
(2.32025 2.9943 0.05)
(2.2216 2.99456 0.05)
(2.12295 2.99483 0.05)
(2.02429 2.99512 0.05)
(1.92561 2.99543 0.05)
(1.82692 2.99574 0.05)
(1.7282 2.99607 0.05)
(1.62947 2.9964 0.05)
(1.53071 2.99675 0.05)
(1.43193 2.9971 0.05)
(1.33315 2.99746 0.05)
(1.23437 2.99782 0.05)
(1.13558 2.99818 0.05)
(1.0368 2.99855 0.05)
(0.938008 2.99891 0.05)
(0.839208 2.99927 0.05)
(0.740403 2.99962 0.05)
(0.641604 2.99996 0.05)
(0.542834 3.00029 0.05)
(0.444102 3.00059 0.05)
(0.345418 3.00085 0.05)
(0.246752 3.00106 0.05)
(0.148073 3.00121 0.05)
(0.0493515 3.00127 0.05)
(9.72225 2.99572 0.05)
(9.62353 2.99565 0.05)
(9.52487 2.99549 0.05)
(9.42621 2.99525 0.05)
(9.32754 2.99492 0.05)
(9.22881 2.99456 0.05)
(9.13003 2.99416 0.05)
(9.03121 2.99373 0.05)
(8.93238 2.9933 0.05)
(8.83356 2.99285 0.05)
(8.73474 2.9924 0.05)
(8.63593 2.99195 0.05)
(8.53713 2.99149 0.05)
(8.43833 2.99104 0.05)
(8.33952 2.9906 0.05)
(8.24073 2.99016 0.05)
(8.14195 2.98973 0.05)
(8.04319 2.98932 0.05)
(7.94447 2.98891 0.05)
(7.84577 2.98852 0.05)
(7.7471 2.98814 0.05)
(7.64845 2.98777 0.05)
(7.54981 2.98743 0.05)
(7.45117 2.9871 0.05)
(7.35254 2.98678 0.05)
(7.2539 2.98649 0.05)
(7.15526 2.98621 0.05)
(7.05661 2.98595 0.05)
(6.95796 2.9857 0.05)
(6.85931 2.98547 0.05)
(6.76065 2.98526 0.05)
(6.66199 2.98506 0.05)
(6.56333 2.98488 0.05)
(6.46467 2.98471 0.05)
(6.366 2.98456 0.05)
(6.26733 2.98442 0.05)
(6.16866 2.98429 0.05)
(6.06999 2.98418 0.05)
(5.97131 2.98407 0.05)
(5.87263 2.98398 0.05)
(5.77395 2.9839 0.05)
(5.67527 2.98383 0.05)
(5.57659 2.98376 0.05)
(5.47791 2.98371 0.05)
(5.37923 2.98367 0.05)
(5.28054 2.98363 0.05)
(5.18186 2.9836 0.05)
(5.08317 2.98358 0.05)
(4.98448 2.98357 0.05)
(4.8858 2.98356 0.05)
(4.78711 2.98357 0.05)
(4.68843 2.98358 0.05)
(4.58974 2.9836 0.05)
(4.49106 2.98363 0.05)
(4.39237 2.98366 0.05)
(4.29369 2.9837 0.05)
(4.195 2.98376 0.05)
(4.09632 2.98382 0.05)
(3.99764 2.98389 0.05)
(3.89896 2.98397 0.05)
(3.80029 2.98406 0.05)
(3.70161 2.98417 0.05)
(3.60294 2.98428 0.05)
(3.50426 2.98441 0.05)
(3.40559 2.98454 0.05)
(3.30693 2.9847 0.05)
(3.20826 2.98486 0.05)
(3.1096 2.98504 0.05)
(3.01094 2.98524 0.05)
(2.91229 2.98545 0.05)
(2.81363 2.98568 0.05)
(2.71498 2.98592 0.05)
(2.61634 2.98618 0.05)
(2.51769 2.98646 0.05)
(2.41906 2.98675 0.05)
(2.32042 2.98706 0.05)
(2.22178 2.98739 0.05)
(2.12315 2.98774 0.05)
(2.02449 2.9881 0.05)
(1.92583 2.98848 0.05)
(1.82713 2.98887 0.05)
(1.72841 2.98928 0.05)
(1.62966 2.9897 0.05)
(1.53089 2.99013 0.05)
(1.43209 2.99056 0.05)
(1.33329 2.99101 0.05)
(1.23449 2.99146 0.05)
(1.13568 2.99191 0.05)
(1.03688 2.99236 0.05)
(0.938064 2.99281 0.05)
(0.83924 2.99326 0.05)
(0.740409 2.9937 0.05)
(0.641588 2.99412 0.05)
(0.542802 2.99452 0.05)
(0.444065 2.99489 0.05)
(0.345389 2.99522 0.05)
(0.246737 2.99548 0.05)
(0.148069 2.99567 0.05)
(0.0493516 2.99573 0.05)
(9.72225 2.98995 0.05)
(9.62353 2.98987 0.05)
(9.52488 2.98968 0.05)
(9.42624 2.98938 0.05)
(9.32758 2.98899 0.05)
(9.22885 2.98854 0.05)
(9.13005 2.98806 0.05)
(9.03121 2.98755 0.05)
(8.93235 2.98702 0.05)
(8.8335 2.98648 0.05)
(8.73466 2.98594 0.05)
(8.63583 2.98539 0.05)
(8.53701 2.98485 0.05)
(8.43818 2.9843 0.05)
(8.33935 2.98376 0.05)
(8.24054 2.98323 0.05)
(8.14174 2.98271 0.05)
(8.04297 2.98221 0.05)
(7.94424 2.98172 0.05)
(7.84555 2.98124 0.05)
(7.74688 2.98078 0.05)
(7.64824 2.98034 0.05)
(7.54961 2.97992 0.05)
(7.45099 2.97952 0.05)
(7.35237 2.97914 0.05)
(7.25374 2.97878 0.05)
(7.15511 2.97844 0.05)
(7.05647 2.97812 0.05)
(6.95784 2.97783 0.05)
(6.85919 2.97755 0.05)
(6.76055 2.97729 0.05)
(6.6619 2.97705 0.05)
(6.56325 2.97683 0.05)
(6.46459 2.97663 0.05)
(6.36593 2.97644 0.05)
(6.26727 2.97627 0.05)
(6.1686 2.97612 0.05)
(6.06993 2.97598 0.05)
(5.97126 2.97585 0.05)
(5.87259 2.97574 0.05)
(5.77392 2.97564 0.05)
(5.67524 2.97555 0.05)
(5.57657 2.97547 0.05)
(5.47789 2.97541 0.05)
(5.37921 2.97535 0.05)
(5.28053 2.97531 0.05)
(5.18185 2.97528 0.05)
(5.08316 2.97525 0.05)
(4.98448 2.97524 0.05)
(4.8858 2.97523 0.05)
(4.78712 2.97523 0.05)
(4.68843 2.97525 0.05)
(4.58975 2.97527 0.05)
(4.49107 2.9753 0.05)
(4.39239 2.97535 0.05)
(4.29371 2.9754 0.05)
(4.19503 2.97546 0.05)
(4.09635 2.97554 0.05)
(3.99768 2.97563 0.05)
(3.899 2.97572 0.05)
(3.80033 2.97584 0.05)
(3.70166 2.97596 0.05)
(3.60299 2.9761 0.05)
(3.50433 2.97625 0.05)
(3.40567 2.97642 0.05)
(3.30701 2.97661 0.05)
(3.20835 2.97681 0.05)
(3.1097 2.97703 0.05)
(3.01105 2.97726 0.05)
(2.9124 2.97752 0.05)
(2.81376 2.9778 0.05)
(2.71512 2.97809 0.05)
(2.61648 2.97841 0.05)
(2.51785 2.97875 0.05)
(2.41923 2.9791 0.05)
(2.3206 2.97948 0.05)
(2.22198 2.97988 0.05)
(2.12336 2.9803 0.05)
(2.02472 2.98074 0.05)
(1.92605 2.98119 0.05)
(1.82736 2.98167 0.05)
(1.72864 2.98216 0.05)
(1.62988 2.98267 0.05)
(1.53108 2.98319 0.05)
(1.43227 2.98372 0.05)
(1.33344 2.98426 0.05)
(1.23462 2.9848 0.05)
(1.13579 2.98535 0.05)
(1.03696 2.9859 0.05)
(0.938124 2.98644 0.05)
(0.839273 2.98698 0.05)
(0.740415 2.98751 0.05)
(0.64157 2.98802 0.05)
(0.542767 2.9885 0.05)
(0.444026 2.98895 0.05)
(0.345357 2.98934 0.05)
(0.24672 2.98966 0.05)
(0.148065 2.98988 0.05)
(0.0493515 2.98996 0.05)
(9.72226 2.98394 0.05)
(9.62354 2.98385 0.05)
(9.5249 2.98361 0.05)
(9.42627 2.98325 0.05)
(9.32762 2.98279 0.05)
(9.22889 2.98227 0.05)
(9.13008 2.9817 0.05)
(9.03121 2.9811 0.05)
(8.93233 2.98047 0.05)
(8.83344 2.97984 0.05)
(8.73458 2.97919 0.05)
(8.63572 2.97855 0.05)
(8.53687 2.9779 0.05)
(8.43802 2.97726 0.05)
(8.33917 2.97662 0.05)
(8.24033 2.97599 0.05)
(8.14152 2.97538 0.05)
(8.04274 2.97478 0.05)
(7.944 2.9742 0.05)
(7.8453 2.97363 0.05)
(7.74664 2.97309 0.05)
(7.64801 2.97256 0.05)
(7.5494 2.97207 0.05)
(7.45079 2.97159 0.05)
(7.35218 2.97114 0.05)
(7.25357 2.97071 0.05)
(7.15495 2.97031 0.05)
(7.05633 2.96993 0.05)
(6.9577 2.96958 0.05)
(6.85907 2.96925 0.05)
(6.76044 2.96894 0.05)
(6.6618 2.96866 0.05)
(6.56315 2.9684 0.05)
(6.4645 2.96815 0.05)
(6.36585 2.96793 0.05)
(6.2672 2.96773 0.05)
(6.16854 2.96755 0.05)
(6.06988 2.96738 0.05)
(5.97122 2.96723 0.05)
(5.87255 2.9671 0.05)
(5.77388 2.96698 0.05)
(5.67521 2.96688 0.05)
(5.57654 2.96678 0.05)
(5.47786 2.96671 0.05)
(5.37919 2.96664 0.05)
(5.28051 2.96659 0.05)
(5.18183 2.96655 0.05)
(5.08316 2.96652 0.05)
(4.98448 2.9665 0.05)
(4.8858 2.9665 0.05)
(4.78712 2.9665 0.05)
(4.68844 2.96652 0.05)
(4.58976 2.96655 0.05)
(4.49109 2.96659 0.05)
(4.39241 2.96664 0.05)
(4.29373 2.9667 0.05)
(4.19506 2.96678 0.05)
(4.09639 2.96686 0.05)
(3.99772 2.96697 0.05)
(3.89905 2.96708 0.05)
(3.80038 2.96722 0.05)
(3.70172 2.96736 0.05)
(3.60305 2.96753 0.05)
(3.5044 2.96771 0.05)
(3.40574 2.96791 0.05)
(3.30709 2.96813 0.05)
(3.20844 2.96837 0.05)
(3.1098 2.96863 0.05)
(3.01116 2.96891 0.05)
(2.91252 2.96922 0.05)
(2.81389 2.96954 0.05)
(2.71526 2.9699 0.05)
(2.61664 2.97027 0.05)
(2.51802 2.97067 0.05)
(2.41941 2.9711 0.05)
(2.3208 2.97154 0.05)
(2.2222 2.97202 0.05)
(2.12358 2.97251 0.05)
(2.02495 2.97303 0.05)
(1.9263 2.97358 0.05)
(1.82761 2.97414 0.05)
(1.72888 2.97472 0.05)
(1.6301 2.97532 0.05)
(1.53129 2.97594 0.05)
(1.43245 2.97657 0.05)
(1.3336 2.97721 0.05)
(1.23475 2.97785 0.05)
(1.1359 2.9785 0.05)
(1.03705 2.97914 0.05)
(0.938186 2.97978 0.05)
(0.839307 2.98042 0.05)
(0.74042 2.98105 0.05)
(0.641549 2.98165 0.05)
(0.54273 2.98222 0.05)
(0.443984 2.98275 0.05)
(0.345322 2.98321 0.05)
(0.246701 2.98359 0.05)
(0.14806 2.98385 0.05)
(0.0493515 2.98394 0.05)
(9.72226 2.97767 0.05)
(9.62354 2.97756 0.05)
(9.52492 2.97728 0.05)
(9.42631 2.97687 0.05)
(9.32767 2.97634 0.05)
(9.22893 2.97573 0.05)
(9.1301 2.97507 0.05)
(9.03121 2.97437 0.05)
(8.93229 2.97364 0.05)
(8.83338 2.9729 0.05)
(8.73449 2.97215 0.05)
(8.63561 2.9714 0.05)
(8.53673 2.97065 0.05)
(8.43786 2.9699 0.05)
(8.33898 2.96916 0.05)
(8.24012 2.96843 0.05)
(8.14128 2.96771 0.05)
(8.04249 2.96701 0.05)
(7.94374 2.96634 0.05)
(7.84505 2.96568 0.05)
(7.74639 2.96505 0.05)
(7.64777 2.96444 0.05)
(7.54917 2.96386 0.05)
(7.45058 2.9633 0.05)
(7.35199 2.96278 0.05)
(7.25339 2.96228 0.05)
(7.15478 2.96181 0.05)
(7.05618 2.96137 0.05)
(6.95756 2.96096 0.05)
(6.85894 2.96057 0.05)
(6.76032 2.96022 0.05)
(6.66169 2.95988 0.05)
(6.56305 2.95958 0.05)
(6.46442 2.9593 0.05)
(6.36577 2.95904 0.05)
(6.26713 2.9588 0.05)
(6.16848 2.95859 0.05)
(6.06982 2.95839 0.05)
(5.97116 2.95822 0.05)
(5.8725 2.95806 0.05)
(5.77384 2.95793 0.05)
(5.67517 2.9578 0.05)
(5.57651 2.9577 0.05)
(5.47784 2.95761 0.05)
(5.37917 2.95753 0.05)
(5.28049 2.95747 0.05)
(5.18182 2.95742 0.05)
(5.08315 2.95739 0.05)
(4.98447 2.95737 0.05)
(4.8858 2.95736 0.05)
(4.78712 2.95737 0.05)
(4.68845 2.95739 0.05)
(4.58977 2.95742 0.05)
(4.4911 2.95746 0.05)
(4.39243 2.95752 0.05)
(4.29376 2.9576 0.05)
(4.19509 2.95769 0.05)
(4.09642 2.95779 0.05)
(3.99776 2.95791 0.05)
(3.89909 2.95805 0.05)
(3.80043 2.9582 0.05)
(3.70177 2.95837 0.05)
(3.60312 2.95857 0.05)
(3.50447 2.95878 0.05)
(3.40582 2.95901 0.05)
(3.30718 2.95927 0.05)
(3.20854 2.95955 0.05)
(3.1099 2.95985 0.05)
(3.01127 2.96018 0.05)
(2.91265 2.96053 0.05)
(2.81403 2.96092 0.05)
(2.71542 2.96133 0.05)
(2.61681 2.96176 0.05)
(2.5182 2.96223 0.05)
(2.4196 2.96273 0.05)
(2.32101 2.96325 0.05)
(2.22242 2.9638 0.05)
(2.12382 2.96438 0.05)
(2.0252 2.96498 0.05)
(1.92655 2.96562 0.05)
(1.82787 2.96627 0.05)
(1.72913 2.96695 0.05)
(1.63034 2.96765 0.05)
(1.53151 2.96837 0.05)
(1.43265 2.9691 0.05)
(1.33377 2.96984 0.05)
(1.2349 2.97059 0.05)
(1.13602 2.97134 0.05)
(1.03714 2.97209 0.05)
(0.938251 2.97284 0.05)
(0.839343 2.97358 0.05)
(0.740426 2.97431 0.05)
(0.641528 2.97501 0.05)
(0.54269 2.97567 0.05)
(0.443939 2.97628 0.05)
(0.345286 2.97681 0.05)
(0.246681 2.97726 0.05)
(0.148054 2.97756 0.05)
(0.0493515 2.97767 0.05)
(9.72226 2.97113 0.05)
(9.62355 2.97101 0.05)
(9.52494 2.97069 0.05)
(9.42635 2.97021 0.05)
(9.32771 2.9696 0.05)
(9.22898 2.9689 0.05)
(9.13013 2.96815 0.05)
(9.03121 2.96734 0.05)
(8.93226 2.96651 0.05)
(8.83332 2.96567 0.05)
(8.7344 2.96481 0.05)
(8.63549 2.96394 0.05)
(8.53659 2.96308 0.05)
(8.43768 2.96222 0.05)
(8.33878 2.96137 0.05)
(8.23989 2.96053 0.05)
(8.14103 2.95971 0.05)
(8.04222 2.95891 0.05)
(7.94347 2.95813 0.05)
(7.84478 2.95738 0.05)
(7.74613 2.95665 0.05)
(7.64752 2.95595 0.05)
(7.54893 2.95528 0.05)
(7.45036 2.95465 0.05)
(7.35178 2.95404 0.05)
(7.2532 2.95347 0.05)
(7.15461 2.95293 0.05)
(7.05601 2.95243 0.05)
(6.95741 2.95195 0.05)
(6.85881 2.95151 0.05)
(6.76019 2.9511 0.05)
(6.66157 2.95072 0.05)
(6.56295 2.95037 0.05)
(6.46432 2.95004 0.05)
(6.36569 2.94975 0.05)
(6.26705 2.94948 0.05)
(6.16841 2.94923 0.05)
(6.06976 2.94901 0.05)
(5.97111 2.94881 0.05)
(5.87245 2.94863 0.05)
(5.7738 2.94847 0.05)
(5.67514 2.94833 0.05)
(5.57648 2.94821 0.05)
(5.47781 2.9481 0.05)
(5.37914 2.94801 0.05)
(5.28048 2.94794 0.05)
(5.18181 2.94789 0.05)
(5.08314 2.94785 0.05)
(4.98447 2.94783 0.05)
(4.8858 2.94782 0.05)
(4.78713 2.94783 0.05)
(4.68846 2.94785 0.05)
(4.58979 2.94788 0.05)
(4.49112 2.94794 0.05)
(4.39245 2.94801 0.05)
(4.29378 2.94809 0.05)
(4.19512 2.94819 0.05)
(4.09646 2.94831 0.05)
(3.9978 2.94845 0.05)
(3.89914 2.94861 0.05)
(3.80049 2.94878 0.05)
(3.70183 2.94898 0.05)
(3.60319 2.9492 0.05)
(3.50454 2.94945 0.05)
(3.4059 2.94972 0.05)
(3.30727 2.95001 0.05)
(3.20864 2.95033 0.05)
(3.11002 2.95068 0.05)
(3.0114 2.95106 0.05)
(2.91278 2.95147 0.05)
(2.81418 2.95191 0.05)
(2.71558 2.95238 0.05)
(2.61698 2.95288 0.05)
(2.51839 2.95342 0.05)
(2.41981 2.95399 0.05)
(2.32123 2.95459 0.05)
(2.22266 2.95522 0.05)
(2.12407 2.95588 0.05)
(2.02547 2.95658 0.05)
(1.92683 2.95731 0.05)
(1.82814 2.95806 0.05)
(1.72939 2.95884 0.05)
(1.63059 2.95964 0.05)
(1.53174 2.96047 0.05)
(1.43286 2.96131 0.05)
(1.33395 2.96216 0.05)
(1.23505 2.96302 0.05)
(1.13615 2.96388 0.05)
(1.03724 2.96474 0.05)
(0.93832 2.9656 0.05)
(0.839381 2.96644 0.05)
(0.740431 2.96728 0.05)
(0.641505 2.96808 0.05)
(0.542647 2.96884 0.05)