/*--------------------------------*- C++ -*----------------------------------*\
| =========                 |                                                 |
| \\      /  F ield         | OpenFOAM: The Open Source CFD Toolbox           |
|  \\    /   O peration     | Version:  2006                                  |
|   \\  /    A nd           | Website:  www.openfoam.com                      |
|    \\/     M anipulation  |                                                 |
\*---------------------------------------------------------------------------*/
FoamFile
{
    version     2.0;
    format      ascii;
    class       volScalarField;
    location    "20000";
    object      DUDtx;
}
// * * * * * * * * * * * * * * * * * * * * * * * * * * * * * * * * * * * * * //

dimensions      [0 1 -2 0 0 0 0];


internalField   nonuniform List<scalar> 
14751
(
-1.74387e-07
-7.17844e-08
-1.22105e-07
-7.34757e-08
-6.7172e-08
-3.51582e-08
-6.20912e-09
1.39175e-08
4.32839e-08
6.5169e-08
8.89832e-08
1.07983e-07
1.26231e-07
1.42467e-07
1.54312e-07
1.65421e-07
1.72593e-07
1.79243e-07
1.82229e-07
1.84941e-07
1.8485e-07
1.85462e-07
1.83602e-07
1.81077e-07
1.76019e-07
1.70733e-07
1.63944e-07
1.56823e-07
1.49076e-07
1.41157e-07
1.33029e-07
1.24872e-07
1.1676e-07
1.08778e-07
1.00811e-07
9.31306e-08
8.55044e-08
7.82802e-08
7.11614e-08
6.39581e-08
5.71081e-08
5.06334e-08
4.43338e-08
3.81252e-08
3.20491e-08
2.57356e-08
1.96876e-08
1.34755e-08
7.41176e-09
1.15001e-09
-5.02949e-09
-1.12953e-08
-1.76365e-08
-2.42276e-08
-3.0781e-08
-3.7606e-08
-4.44044e-08
-5.15954e-08
-5.86197e-08
-6.5696e-08
-7.29487e-08
-8.02306e-08
-8.80834e-08
-9.66061e-08
-1.0467e-07
-1.12852e-07
-1.2144e-07
-1.30335e-07
-1.39373e-07
-1.48088e-07
-1.56719e-07
-1.6495e-07
-1.73044e-07
-1.81206e-07
-1.89479e-07
-1.97259e-07
-2.06323e-07
-2.12988e-07
-2.22261e-07
-2.26686e-07
-2.35029e-07
-2.39149e-07
-2.44933e-07
-2.48634e-07
-2.51746e-07
-2.54776e-07
-2.56297e-07
-2.56322e-07
-2.56776e-07
-2.51877e-07
-2.46692e-07
-2.40681e-07
-2.2423e-07
-2.20978e-07
-1.96334e-07
-1.8238e-07
-1.4141e-07
-1.91919e-07
-1.1234e-07
-7.48355e-07
-2.81916e-07
-3.0302e-07
3.97432e-08
2.14939e-07
4.73494e-07
7.33238e-07
9.4732e-07
1.17904e-06
1.35957e-06
1.52339e-06
1.6445e-06
1.74278e-06
1.81256e-06
1.84854e-06
1.86761e-06
1.85546e-06
1.82901e-06
1.77743e-06
1.71806e-06
1.64362e-06
1.57453e-06
1.49912e-06
1.42468e-06
1.3438e-06
1.26654e-06
1.18757e-06
1.11122e-06
1.03601e-06
9.63707e-07
8.93797e-07
8.26766e-07
7.62598e-07
7.01808e-07
6.42834e-07
5.87666e-07
5.33891e-07
4.83723e-07
4.34456e-07
3.88123e-07
3.4309e-07
2.99003e-07
2.5811e-07
2.16118e-07
1.77264e-07
1.37307e-07
9.87027e-08
5.97078e-08
2.16108e-08
-1.73008e-08
-5.56504e-08
-9.46965e-08
-1.33311e-07
-1.73196e-07
-2.12514e-07
-2.52968e-07
-2.93197e-07
-3.34751e-07
-3.7504e-07
-4.17453e-07
-4.57688e-07
-5.00013e-07
-5.42135e-07
-5.84849e-07
-6.28102e-07
-6.70725e-07
-7.1522e-07
-7.59442e-07
-8.05861e-07
-8.49924e-07
-8.92648e-07
-9.31975e-07
-9.70066e-07
-1.00853e-06
-1.04781e-06
-1.0836e-06
-1.12717e-06
-1.16062e-06
-1.20805e-06
-1.24233e-06
-1.29167e-06
-1.32877e-06
-1.37585e-06
-1.41933e-06
-1.46105e-06
-1.5029e-06
-1.53743e-06
-1.56564e-06
-1.58972e-06
-1.59053e-06
-1.5815e-06
-1.55489e-06
-1.48494e-06
-1.44642e-06
-1.31565e-06
-1.21196e-06
-1.00525e-06
-1.09492e-06
-6.96361e-07
-1.27962e-06
-2.15664e-07
1.3899e-08
8.93378e-07
1.46943e-06
2.10753e-06
2.79253e-06
3.33374e-06
3.8786e-06
4.30738e-06
4.67342e-06
4.93519e-06
5.12972e-06
5.24619e-06
5.28266e-06
5.27367e-06
5.18919e-06
5.07306e-06
4.89799e-06
4.70108e-06
4.4695e-06
4.25332e-06
4.02533e-06
3.80611e-06
3.57316e-06
3.35075e-06
3.1274e-06
2.91219e-06
2.70213e-06
2.50107e-06
2.30801e-06
2.12328e-06
1.94751e-06
1.78029e-06
1.61939e-06
1.46949e-06
1.32286e-06
1.18544e-06
1.05243e-06
9.26668e-07
8.04441e-07
6.84974e-07
5.72859e-07
4.5881e-07
3.52588e-07
2.44343e-07
1.3974e-07
3.41551e-08
-6.91557e-08
-1.73425e-07
-2.76273e-07
-3.81633e-07
-4.85485e-07
-5.91127e-07
-6.95753e-07
-8.02913e-07
-9.08684e-07
-1.01681e-06
-1.12131e-06
-1.23146e-06
-1.33507e-06
-1.4435e-06
-1.54968e-06
-1.65491e-06
-1.76113e-06
-1.86624e-06
-1.97452e-06
-2.07997e-06
-2.19196e-06
-2.29982e-06
-2.40433e-06
-2.49757e-06
-2.58557e-06
-2.67519e-06
-2.76483e-06
-2.84627e-06
-2.94541e-06
-3.02162e-06
-3.1299e-06
-3.20758e-06
-3.32153e-06
-3.40442e-06
-3.51118e-06
-3.60754e-06
-3.69837e-06
-3.78861e-06
-3.85859e-06
-3.91305e-06
-3.95224e-06
-3.93199e-06
-3.89534e-06
-3.8031e-06
-3.61369e-06
-3.48406e-06
-3.12127e-06
-2.84384e-06
-2.35172e-06
-2.3212e-06
-1.31058e-06
-1.21091e-06
5.65821e-07
1.21399e-06
2.7126e-06
3.7984e-06
4.85955e-06
6.05775e-06
6.97331e-06
7.87232e-06
8.57737e-06
9.16222e-06
9.56676e-06
9.83772e-06
9.97547e-06
9.98176e-06
9.91182e-06
9.70617e-06
9.45187e-06
9.10689e-06
8.71833e-06
8.26305e-06
7.8332e-06
7.39288e-06
6.97196e-06
6.52934e-06
6.10506e-06
5.68031e-06
5.27176e-06
4.87429e-06
4.49224e-06
4.12532e-06
3.77388e-06
3.4389e-06
3.11942e-06
2.81157e-06
2.52303e-06
2.24216e-06
1.97684e-06
1.7202e-06
1.47555e-06
1.23775e-06
1.00652e-06
7.87279e-07
5.644e-07
3.55004e-07
1.44419e-07
-5.97525e-08
-2.6526e-07
-4.66539e-07
-6.70159e-07
-8.7073e-07
-1.07469e-06
-1.27595e-06
-1.47942e-06
-1.68044e-06
-1.88404e-06
-2.08456e-06
-2.28854e-06
-2.48546e-06
-2.69025e-06
-2.88365e-06
-3.08137e-06
-3.27459e-06
-3.46482e-06
-3.6531e-06
-3.83927e-06
-4.02662e-06
-4.20681e-06
-4.39833e-06
-4.58797e-06
-4.77307e-06
-4.93313e-06
-5.08093e-06
-5.22995e-06
-5.37418e-06
-5.50607e-06
-5.66444e-06
-5.78133e-06
-5.95195e-06
-6.06337e-06
-6.23914e-06
-6.3522e-06
-6.50306e-06
-6.62743e-06
-6.73927e-06
-6.84402e-06
-6.89968e-06
-6.92381e-06
-6.91118e-06
-6.7829e-06
-6.6419e-06
-6.39025e-06
-5.95963e-06
-5.63343e-06
-4.89093e-06
-4.34959e-06
-3.47075e-06
-3.13072e-06
-1.33642e-06
-9.70757e-08
2.42336e-06
3.57309e-06
5.70567e-06
7.33605e-06
8.8057e-06
1.05135e-05
1.17799e-05
1.29929e-05
1.39609e-05
1.47198e-05
1.52231e-05
1.55344e-05
1.56454e-05
1.55661e-05
1.53671e-05
1.49903e-05
1.45617e-05
1.40081e-05
1.33884e-05
1.26484e-05
1.1935e-05
1.12231e-05
1.05508e-05
9.85563e-06
9.18152e-06
8.51099e-06
7.86543e-06
7.23361e-06
6.626e-06
6.04366e-06
5.48773e-06
4.95609e-06
4.44038e-06
3.94901e-06
3.48395e-06
3.03021e-06
2.6008e-06
2.1837e-06
1.78506e-06
1.39637e-06
1.02115e-06
6.55692e-07
2.89848e-07
-5.11809e-08
-3.9777e-07
-7.32238e-07
-1.06954e-06
-1.4048e-06
-1.73677e-06
-2.06381e-06
-2.39484e-06
-2.72367e-06
-3.05257e-06
-3.37113e-06
-3.69496e-06
-4.00933e-06
-4.32815e-06
-4.64145e-06
-4.95705e-06
-5.25141e-06
-5.55149e-06
-5.83889e-06
-6.11982e-06
-6.39999e-06
-6.67176e-06
-6.92811e-06
-7.17346e-06
-7.43527e-06
-7.70316e-06
-7.96857e-06
-8.19701e-06
-8.40585e-06
-8.60445e-06
-8.7815e-06
-8.94583e-06
-9.15205e-06
-9.28974e-06
-9.50179e-06
-9.60904e-06
-9.81044e-06
-9.9204e-06
-1.00699e-05
-1.01658e-05
-1.02295e-05
-1.02769e-05
-1.02462e-05
-1.01437e-05
-9.98056e-06
-9.65302e-06
-9.29556e-06
-8.75798e-06
-7.97874e-06
-7.33698e-06
-6.0969e-06
-5.21519e-06
-3.83145e-06
-3.01339e-06
-3.7083e-07
2.24254e-06
5.50907e-06
7.13372e-06
9.81165e-06
1.19135e-05
1.37173e-05
1.58233e-05
1.73386e-05
1.87637e-05
1.9882e-05
2.07292e-05
2.12538e-05
2.15274e-05
2.15454e-05
2.13131e-05
2.0935e-05
2.03434e-05
1.96801e-05
1.8879e-05
1.80576e-05
1.71697e-05
1.62408e-05
1.52248e-05
1.42573e-05
1.32578e-05
1.22982e-05
1.13443e-05
1.04157e-05
9.51274e-06
8.65399e-06
7.82086e-06
7.01516e-06
6.24746e-06
5.50785e-06
4.79304e-06
4.11649e-06
3.46374e-06
2.82946e-06
2.21173e-06
1.62009e-06
1.05154e-06
4.95549e-07
-4.3076e-08
-5.85478e-07
-1.10091e-06
-1.60523e-06
-2.10723e-06
-2.62007e-06
-3.10647e-06
-3.59732e-06
-4.08476e-06
-4.55966e-06
-5.03591e-06
-5.50951e-06
-5.96737e-06
-6.42327e-06
-6.8652e-06
-7.31162e-06
-7.74342e-06
-8.167e-06
-8.56647e-06
-8.97125e-06
-9.34777e-06
-9.71417e-06
-1.00616e-05
-1.03974e-05
-1.07153e-05
-1.09872e-05
-1.12556e-05
-1.14964e-05
-1.17304e-05
-1.19587e-05
-1.21765e-05
-1.23909e-05
-1.25711e-05
-1.27333e-05
-1.29293e-05
-1.30292e-05
-1.32301e-05
-1.32779e-05
-1.34477e-05
-1.34816e-05
-1.3558e-05
-1.35632e-05
-1.34953e-05
-1.33932e-05
-1.31863e-05
-1.28697e-05
-1.2467e-05
-1.18398e-05
-1.11771e-05
-1.02721e-05
-9.06939e-06
-8.03712e-06
-6.2441e-06
-4.96047e-06
-3.00963e-06
-1.62463e-06
1.82278e-06
5.93119e-06
9.898e-06
1.19563e-05
1.50969e-05
1.75874e-05
1.96559e-05
2.2024e-05
2.3696e-05
2.51987e-05
2.63295e-05
2.71401e-05
2.75815e-05
2.77248e-05
2.75773e-05
2.71435e-05
2.65246e-05
2.56633e-05
2.47312e-05
2.36585e-05
2.25778e-05
2.14666e-05
2.02704e-05
1.89258e-05
1.76427e-05
1.63242e-05
1.50485e-05
1.37946e-05
1.25834e-05
1.13936e-05
1.02545e-05
9.15967e-06
8.09661e-06
7.07749e-06
6.09129e-06
5.14167e-06
4.23345e-06
3.34822e-06
2.50722e-06
1.67758e-06
8.74578e-07
1.07999e-07
-6.57361e-07
-1.39013e-06
-2.1169e-06
-2.83215e-06
-3.53665e-06
-4.21867e-06
-4.90824e-06
-5.57794e-06
-6.23396e-06
-6.8827e-06
-7.5267e-06
-8.15555e-06
-8.77068e-06
-9.37185e-06
-9.97534e-06
-1.05448e-05
-1.11009e-05
-1.16448e-05
-1.21789e-05
-1.26703e-05
-1.31475e-05
-1.35972e-05
-1.40279e-05
-1.44288e-05
-1.47945e-05
-1.51192e-05
-1.5408e-05
-1.56528e-05
-1.58131e-05
-1.59724e-05
-1.61684e-05
-1.63587e-05
-1.6518e-05
-1.66455e-05
-1.6748e-05
-1.6877e-05
-1.68948e-05
-1.70137e-05
-1.69592e-05
-1.70168e-05
-1.69003e-05
-1.68426e-05
-1.66561e-05
-1.63809e-05
-1.60496e-05
-1.55701e-05
-1.49589e-05
-1.42114e-05
-1.3211e-05
-1.21661e-05
-1.08356e-05
-9.14449e-06
-7.65044e-06
-5.31418e-06
-3.54494e-06
-9.87877e-07
1.0332e-06
5.26771e-06
1.04961e-05
1.50136e-05
1.73922e-05
2.08821e-05
2.36443e-05
2.58889e-05
2.83304e-05
3.00285e-05
3.15129e-05
3.2542e-05
3.31848e-05
3.34426e-05
3.33733e-05
3.29805e-05
3.22861e-05
3.14016e-05
3.02694e-05
2.90303e-05
2.76558e-05
2.62531e-05
2.47615e-05
2.32229e-05
2.15801e-05
2.00014e-05
1.84088e-05
1.68669e-05
1.53384e-05
1.38623e-05
1.24327e-05
1.1049e-05
9.71255e-06
8.41828e-06
7.17142e-06
5.97659e-06
4.8213e-06
3.69985e-06
2.62175e-06
1.57561e-06
5.56763e-07
-4.28131e-07
-1.38876e-06
-2.33187e-06
-3.24103e-06
-4.14999e-06
-5.03605e-06
-5.9053e-06
-6.7611e-06
-7.60394e-06
-8.42944e-06
-9.23579e-06
-1.00218e-05
-1.07973e-05
-1.15449e-05
-1.22903e-05
-1.30078e-05
-1.3706e-05
-1.43796e-05
-1.50244e-05
-1.56327e-05
-1.62279e-05
-1.67821e-05
-1.73046e-05
-1.77891e-05
-1.82392e-05
-1.86351e-05
-1.89994e-05
-1.93094e-05
-1.95657e-05
-1.97792e-05
-1.99355e-05
-2.00821e-05
-2.02259e-05
-2.03441e-05
-2.04229e-05
-2.04458e-05
-2.04407e-05
-2.04712e-05
-2.03715e-05
-2.03615e-05
-2.01549e-05
-2.00493e-05
-1.97396e-05
-1.94529e-05
-1.90172e-05
-1.84755e-05
-1.78515e-05
-1.70476e-05
-1.60743e-05
-1.49582e-05
-1.35579e-05
-1.20726e-05
-1.02998e-05
-8.13981e-06
-6.16327e-06
-3.33463e-06
-1.08261e-06
2.03609e-06
4.62176e-06
9.4831e-06
1.50553e-05
1.99573e-05
2.24666e-05
2.60965e-05
2.89277e-05
3.12218e-05
3.36403e-05
3.52624e-05
3.66021e-05
3.74464e-05
3.79014e-05
3.79309e-05
3.76019e-05
3.69519e-05
3.59924e-05
3.48345e-05
3.34308e-05
3.19336e-05
3.02841e-05
2.85911e-05
2.68082e-05
2.49913e-05
2.31147e-05
2.1303e-05
1.94651e-05
1.7704e-05
1.59719e-05
1.42825e-05
1.26399e-05
1.10619e-05
9.54086e-06
8.06262e-06
6.63311e-06
5.25767e-06
3.93167e-06
2.65569e-06
1.40854e-06
1.94081e-07
-9.75592e-07
-2.1121e-06
-3.2236e-06
-4.31771e-06
-5.37799e-06
-6.42001e-06
-7.43433e-06
-8.44313e-06
-9.42381e-06
-1.03762e-05
-1.13054e-05
-1.2227e-05
-1.3113e-05
-1.39719e-05
-1.48056e-05
-1.56225e-05
-1.6413e-05
-1.71665e-05
-1.78775e-05
-1.8578e-05
-1.92123e-05
-1.98187e-05
-2.03846e-05
-2.0896e-05
-2.13652e-05
-2.1787e-05
-2.21554e-05
-2.24751e-05
-2.27327e-05
-2.29326e-05
-2.30771e-05
-2.31735e-05
-2.32497e-05
-2.32912e-05
-2.32953e-05
-2.32494e-05
-2.31606e-05
-2.30382e-05
-2.29053e-05
-2.26579e-05
-2.2479e-05
-2.2078e-05
-2.17555e-05
-2.12155e-05
-2.06981e-05
-2.00079e-05
-1.91877e-05
-1.82585e-05
-1.71215e-05
-1.58166e-05
-1.43679e-05
-1.25939e-05
-1.07247e-05
-8.5887e-06
-6.04485e-06
-3.66949e-06
-4.80191e-07
2.17678e-06
5.65293e-06
8.60658e-06
1.38214e-05
1.91757e-05
2.43148e-05
2.68258e-05
3.0477e-05
3.32879e-05
3.553e-05
3.77957e-05
3.92779e-05
4.04428e-05
4.11017e-05
4.13346e-05
4.11284e-05
4.05609e-05
3.96752e-05
3.84678e-05
3.70705e-05
3.54346e-05
3.36945e-05
3.18185e-05
2.98956e-05
2.78933e-05
2.58686e-05
2.37921e-05
2.18012e-05
1.97887e-05
1.78418e-05
1.5931e-05
1.40797e-05
1.22927e-05
1.05513e-05
8.86657e-06
7.243e-06
5.68671e-06
4.17531e-06
2.70427e-06
1.29139e-06
-8.27378e-08
-1.41505e-06
-2.71222e-06
-3.96804e-06
-5.1903e-06
-6.40568e-06
-7.56927e-06
-8.70476e-06
-9.82594e-06
-1.09165e-05
-1.19621e-05
-1.29998e-05
-1.40078e-05
-1.49819e-05
-1.59215e-05
-1.68344e-05
-1.77145e-05
-1.85597e-05
-1.9359e-05
-2.01397e-05
-2.08568e-05
-2.15313e-05
-2.21658e-05
-2.27555e-05
-2.32819e-05
-2.37467e-05
-2.41629e-05
-2.45353e-05
-2.48343e-05
-2.50743e-05
-2.52527e-05
-2.53664e-05
-2.54208e-05
-2.54267e-05
-2.53892e-05
-2.53043e-05
-2.51699e-05
-2.49949e-05
-2.4772e-05
-2.44971e-05
-2.42156e-05
-2.37973e-05
-2.34208e-05
-2.28148e-05
-2.22927e-05
-2.15457e-05
-2.07766e-05
-1.98623e-05
-1.8796e-05
-1.75839e-05
-1.61897e-05
-1.46152e-05
-1.28672e-05
-1.08193e-05
-8.66276e-06
-6.22823e-06
-3.41147e-06
-7.65223e-07
2.65514e-06
5.59947e-06
9.30507e-06
1.24715e-05
1.78376e-05
2.2651e-05
2.7947e-05
3.03613e-05
3.39524e-05
3.6673e-05
3.88217e-05
4.09184e-05
4.22396e-05
4.32229e-05
4.36751e-05
4.37032e-05
4.33059e-05
4.2519e-05
4.14232e-05
4.00204e-05
3.8409e-05
3.65809e-05
3.46507e-05
3.25734e-05
3.04582e-05
2.82863e-05
2.61138e-05
2.38872e-05
2.17375e-05
1.95921e-05
1.74986e-05
1.54588e-05
1.34854e-05
1.15647e-05
9.70773e-06
7.90587e-06
6.17446e-06
4.49988e-06
2.87902e-06
1.30737e-06
-2.07684e-07
-1.67397e-06
-3.09912e-06
-4.48077e-06
-5.83178e-06
-7.14071e-06
-8.41492e-06
-9.65799e-06
-1.0863e-05
-1.20275e-05
-1.31632e-05
-1.42651e-05
-1.53411e-05
-1.63687e-05
-1.73734e-05
-1.83337e-05
-1.92569e-05
-2.01374e-05
-2.09823e-05
-2.17799e-05
-2.25249e-05
-2.32135e-05
-2.38547e-05
-2.444e-05
-2.49728e-05
-2.5436e-05
-2.58405e-05
-2.61769e-05
-2.64717e-05
-2.66825e-05
-2.68219e-05
-2.69002e-05
-2.69279e-05
-2.68822e-05
-2.67527e-05
-2.659e-05
-2.63793e-05
-2.61185e-05
-2.58183e-05
-2.54667e-05
-2.50434e-05
-2.45959e-05
-2.40144e-05
-2.34581e-05
-2.2695e-05
-2.19734e-05
-2.10475e-05
-2.00899e-05
-1.89635e-05
-1.76887e-05
-1.62831e-05
-1.46916e-05
-1.29007e-05
-1.09351e-05
-8.6823e-06
-6.32501e-06
-3.7099e-06
-7.156e-07
2.13425e-06
5.68227e-06
8.81877e-06
1.26311e-05
1.59106e-05
2.13082e-05
2.54467e-05
3.08295e-05
3.31266e-05
3.66015e-05
3.92025e-05
4.12539e-05
4.31835e-05
4.43363e-05
4.51431e-05
4.54347e-05
4.5273e-05
4.46823e-05
4.37351e-05
4.24595e-05
4.08741e-05
3.9108e-05
3.71059e-05
3.50182e-05
3.28056e-05
3.05436e-05
2.8228e-05
2.59247e-05
2.35864e-05
2.13153e-05
1.90553e-05
1.68637e-05
1.4723e-05
1.26455e-05
1.06282e-05
8.68355e-06
6.79154e-06
4.96896e-06
3.22245e-06
1.51795e-06
-1.28301e-07
-1.70959e-06
-3.25267e-06
-4.73489e-06
-6.17511e-06
-7.58624e-06
-8.93611e-06
-1.02519e-05
-1.15279e-05
-1.27656e-05
-1.39651e-05
-1.51159e-05
-1.62235e-05
-1.73166e-05
-1.83513e-05
-1.93416e-05
-2.02865e-05
-2.11925e-05
-2.20549e-05
-2.28576e-05
-2.36105e-05
-2.43167e-05
-2.4951e-05
-2.55431e-05
-2.60613e-05
-2.65176e-05
-2.69083e-05
-2.7231e-05
-2.74878e-05
-2.76808e-05
-2.78024e-05
-2.78516e-05
-2.78287e-05
-2.77351e-05
-2.75773e-05
-2.73599e-05
-2.70739e-05
-2.67409e-05
-2.63718e-05
-2.59671e-05
-2.54724e-05
-2.49111e-05
-2.43343e-05
-2.36041e-05
-2.29088e-05
-2.20093e-05
-2.11331e-05
-2.0066e-05
-1.89586e-05
-1.76867e-05
-1.62736e-05
-1.4711e-05
-1.29628e-05
-1.10372e-05
-8.92816e-06
-6.54913e-06
-4.05261e-06
-1.30993e-06
1.78061e-06
4.76123e-06
8.37128e-06
1.1619e-05
1.54793e-05
1.87791e-05
2.41299e-05
2.76221e-05
3.30374e-05
3.52041e-05
3.85678e-05
4.10466e-05
4.29744e-05
4.47384e-05
4.57624e-05
4.64077e-05
4.65354e-05
4.6231e-05
4.55083e-05
4.43972e-05
4.29644e-05
4.12556e-05
3.9352e-05
3.7217e-05
3.5003e-05
3.26671e-05
3.02931e-05
2.788e-05
2.54707e-05
2.30362e-05
2.06803e-05
1.83317e-05
1.60586e-05
1.38439e-05
1.16887e-05
9.60154e-06
7.58523e-06
5.64046e-06
3.76356e-06
1.93988e-06
1.88641e-07
-1.50576e-06
-3.13719e-06
-4.70966e-06
-6.24359e-06
-7.71573e-06
-9.13824e-06
-1.05115e-05
-1.18401e-05
-1.31305e-05
-1.43712e-05
-1.55644e-05
-1.6731e-05
-1.78332e-05
-1.8887e-05
-1.98931e-05
-2.0864e-05
-2.17884e-05
-2.26596e-05
-2.3474e-05
-2.42244e-05
-2.49208e-05
-2.55647e-05
-2.61311e-05
-2.66597e-05
-2.71073e-05
-2.7482e-05
-2.77956e-05
-2.80308e-05
-2.82029e-05
-2.83121e-05
-2.83395e-05
-2.83073e-05
-2.81802e-05
-2.79856e-05
-2.77517e-05
-2.74237e-05
-2.7041e-05
-2.66281e-05
-2.61583e-05
-2.56337e-05
-2.50437e-05
-2.43824e-05
-2.36782e-05
-2.28548e-05
-2.20395e-05
-2.10507e-05
-2.00687e-05
-1.88844e-05
-1.76681e-05
-1.62936e-05
-1.47739e-05
-1.31253e-05
-1.12818e-05
-9.26162e-06
-7.06299e-06
-4.60263e-06
-2.02761e-06
7.92362e-07
3.95352e-06
7.00726e-06
1.06151e-05
1.39308e-05
1.77894e-05
2.10839e-05
2.63445e-05
2.92718e-05
3.46631e-05
3.67239e-05
3.99596e-05
4.231e-05
4.41575e-05
4.57781e-05
4.66734e-05
4.71804e-05
4.71818e-05
4.67515e-05
4.58925e-05
4.46646e-05
4.31226e-05
4.12947e-05
3.9283e-05
3.70454e-05
3.47257e-05
3.22996e-05
2.98363e-05
2.73386e-05
2.48589e-05
2.23642e-05
1.99381e-05
1.75267e-05
1.51867e-05
1.2902e-05
1.07066e-05
8.57606e-06
6.51464e-06
4.52226e-06
2.59616e-06
7.43209e-07
-1.03851e-06
-2.75357e-06
-4.40785e-06
-6.00346e-06
-7.53929e-06
-9.02612e-06
-1.04633e-05
-1.18414e-05
-1.31638e-05
-1.44258e-05
-1.56598e-05
-1.68473e-05
-1.79738e-05
-1.90469e-05
-2.00809e-05
-2.10545e-05
-2.19792e-05
-2.28547e-05
-2.36733e-05
-2.44312e-05
-2.51322e-05
-2.57748e-05
-2.63579e-05
-2.68573e-05
-2.72989e-05
-2.76755e-05
-2.79937e-05
-2.82308e-05
-2.83916e-05
-2.84802e-05
-2.85075e-05
-2.84563e-05
-2.83349e-05
-2.81468e-05
-2.78838e-05
-2.75456e-05
-2.71427e-05
-2.67027e-05
-2.62131e-05
-2.56602e-05
-2.5061e-05
-2.4385e-05
-2.36331e-05
-2.28662e-05
-2.19634e-05
-2.1057e-05
-2.00088e-05
-1.89391e-05
-1.76964e-05
-1.64185e-05
-1.4976e-05
-1.33857e-05
-1.16636e-05
-9.77662e-06
-7.70066e-06
-5.44185e-06
-2.94283e-06
-3.10105e-07
2.55341e-06
5.71293e-06
8.8045e-06
1.24205e-05
1.577e-05
1.9602e-05
2.28638e-05
2.8014e-05
3.04902e-05
3.58194e-05
3.77916e-05
4.08994e-05
4.31558e-05
4.49256e-05
4.63947e-05
4.7191e-05
4.76011e-05
4.74955e-05
4.69612e-05
4.59884e-05
4.46553e-05
4.30326e-05
4.11143e-05
3.90125e-05
3.67041e-05
3.42988e-05
3.17925e-05
2.92745e-05
2.67154e-05
2.41778e-05
2.16252e-05
1.91422e-05
1.6694e-05
1.43242e-05
1.20069e-05
9.76381e-06
7.59417e-06
5.50309e-06
3.49046e-06
1.55333e-06
-3.11984e-07
-2.10747e-06
-3.83717e-06
-5.49677e-06
-7.09796e-06
-8.62849e-06
-1.00994e-05
-1.15323e-05
-1.28839e-05
-1.41907e-05
-1.54486e-05
-1.66424e-05
-1.77898e-05
-1.88985e-05
-1.99288e-05
-2.09172e-05
-2.1856e-05
-2.27301e-05
-2.35517e-05
-2.43239e-05
-2.5031e-05
-2.56636e-05
-2.62451e-05
-2.67725e-05
-2.72098e-05
-2.7593e-05
-2.79035e-05
-2.81461e-05
-2.83254e-05
-2.84318e-05
-2.8445e-05
-2.84119e-05
-2.83062e-05
-2.81204e-05
-2.78601e-05
-2.75315e-05
-2.71449e-05
-2.67002e-05
-2.61991e-05
-2.56429e-05
-2.50463e-05
-2.43866e-05
-2.3652e-05
-2.28394e-05
-2.20164e-05
-2.1079e-05
-2.01026e-05
-1.90024e-05
-1.78951e-05
-1.66172e-05
-1.52876e-05
-1.38138e-05
-1.21889e-05
-1.04305e-05
-8.49959e-06
-6.39318e-06
-4.11552e-06
-1.59151e-06
1.05481e-06
3.93282e-06
7.1015e-06
1.02186e-05
1.37943e-05
1.71648e-05
2.09519e-05
2.41859e-05
2.92346e-05
3.13468e-05
3.65653e-05
3.85099e-05
4.15113e-05
4.36763e-05
4.53607e-05
4.67245e-05
4.74421e-05
4.77645e-05
4.75621e-05
4.69348e-05
4.58985e-05
4.44868e-05
4.27751e-05
4.07965e-05
3.86241e-05
3.62528e-05
3.37958e-05
3.12307e-05
2.86567e-05
2.60722e-05
2.34892e-05
2.08916e-05
1.83763e-05
1.59057e-05
1.34976e-05
1.11511e-05
8.91044e-06
6.72888e-06
4.61233e-06
2.5959e-06
6.5347e-07
-1.21861e-06
-3.01016e-06
-4.73661e-06
-6.38316e-06
-7.971e-06
-9.4887e-06
-1.09469e-05
-1.23553e-05
-1.36824e-05
-1.49515e-05
-1.61715e-05
-1.73495e-05
-1.84563e-05
-1.95105e-05
-2.05208e-05
-2.14622e-05
-2.23513e-05
-2.3184e-05
-2.39477e-05
-2.46698e-05
-2.5335e-05
-2.59199e-05
-2.64354e-05
-2.69025e-05
-2.72987e-05
-2.76332e-05
-2.79005e-05
-2.80918e-05
-2.81991e-05
-2.82511e-05
-2.82418e-05
-2.81519e-05
-2.79825e-05
-2.77649e-05
-2.74663e-05
-2.70805e-05
-2.66566e-05
-2.61833e-05
-2.56347e-05
-2.50553e-05
-2.4405e-05
-2.36896e-05
-2.29294e-05
-2.21034e-05
-2.12324e-05
-2.02553e-05
-1.92586e-05
-1.813e-05
-1.69959e-05
-1.57048e-05
-1.43329e-05
-1.28401e-05
-1.12022e-05
-9.43152e-06
-7.49112e-06
-5.36824e-06
-3.08072e-06
-5.5692e-07
2.10341e-06
4.97309e-06
8.14413e-06
1.12854e-05
1.48164e-05
1.81871e-05
2.19298e-05
2.51301e-05
3.00874e-05
3.19484e-05
3.70323e-05
3.89453e-05
4.1836e-05
4.39406e-05
4.55731e-05
4.68434e-05
4.74942e-05
4.77395e-05
4.74785e-05
4.67839e-05
4.5686e-05
4.4214e-05
4.24427e-05
4.03978e-05
3.8174e-05
3.57602e-05
3.32483e-05
3.06716e-05
2.80651e-05
2.54306e-05
2.28152e-05
2.02094e-05
1.76759e-05
1.51733e-05
1.27657e-05
1.04164e-05
8.15896e-06
5.97032e-06
3.85656e-06
1.8416e-06
-8.8312e-08
-1.94923e-06
-3.74232e-06
-5.44701e-06
-7.07259e-06
-8.63923e-06
-1.01353e-05
-1.15725e-05
-1.29469e-05
-1.42396e-05
-1.54848e-05
-1.66801e-05
-1.78067e-05
-1.88732e-05
-1.99094e-05
-2.08631e-05
-2.17558e-05
-2.26186e-05
-2.34095e-05
-2.4126e-05
-2.47958e-05
-2.54176e-05
-2.59665e-05
-2.64402e-05
-2.68593e-05
-2.72143e-05
-2.75139e-05
-2.77269e-05
-2.78693e-05
-2.79605e-05
-2.79901e-05
-2.79257e-05
-2.77997e-05
-2.7602e-05
-2.73364e-05
-2.70253e-05
-2.66367e-05
-2.61633e-05
-2.56504e-05
-2.51134e-05
-2.44887e-05
-2.38039e-05
-2.30815e-05
-2.22893e-05
-2.14451e-05
-2.05475e-05
-1.9555e-05
-1.85624e-05
-1.74251e-05
-1.62478e-05
-1.49519e-05
-1.35891e-05
-1.20831e-05
-1.04282e-05
-8.65389e-06
-6.72787e-06
-4.60587e-06
-2.30384e-06
1.99187e-07
2.87928e-06
5.74383e-06
8.88643e-06
1.2027e-05
1.55284e-05
1.89044e-05
2.26077e-05
2.57801e-05
3.06282e-05
3.2342e-05
3.725e-05
3.91672e-05
4.19883e-05
4.40363e-05
4.56151e-05
4.68173e-05
4.74296e-05
4.76109e-05
4.72922e-05
4.65469e-05
4.53902e-05
4.38752e-05
4.20631e-05
3.99844e-05
3.77289e-05
3.52824e-05
3.27371e-05
3.01221e-05
2.74955e-05
2.48477e-05
2.22124e-05
1.95998e-05
1.70507e-05
1.45421e-05
1.21385e-05
9.79154e-06
7.52081e-06
5.34129e-06
3.24804e-06
1.24045e-06
-6.83208e-07
-2.52583e-06
-4.28934e-06
-5.97701e-06
-7.58564e-06
-9.13504e-06
-1.06012e-05
-1.19959e-05
-1.33385e-05
-1.46112e-05
-1.58222e-05
-1.69825e-05
-1.80845e-05
-1.91113e-05
-2.00931e-05
-2.10287e-05
-2.18985e-05
-2.26982e-05
-2.34467e-05
-2.41555e-05
-2.47876e-05
-2.53535e-05
-2.58808e-05
-2.63156e-05
-2.6702e-05
-2.70465e-05
-2.73028e-05
-2.74799e-05
-2.76059e-05
-2.76628e-05
-2.76521e-05
-2.7583e-05
-2.74321e-05
-2.72193e-05
-2.69471e-05
-2.65978e-05
-2.61816e-05
-2.57174e-05
-2.51976e-05
-2.46231e-05
-2.39867e-05
-2.32893e-05
-2.25534e-05
-2.17656e-05
-2.0896e-05
-1.99968e-05
-1.90091e-05
-1.79759e-05
-1.68644e-05
-1.56929e-05
-1.43865e-05
-1.29972e-05
-1.15012e-05
-9.87619e-06
-8.10442e-06
-6.17062e-06
-4.03909e-06
-1.75934e-06
7.30725e-07
3.41293e-06
6.2635e-06
9.37534e-06
1.25255e-05
1.59987e-05
1.93763e-05
2.30558e-05
2.61782e-05
3.09368e-05
3.25772e-05
3.73114e-05
3.92531e-05
4.20052e-05
4.399e-05
4.55522e-05
4.67032e-05
4.7265e-05
4.74115e-05
4.70517e-05
4.62712e-05
4.50867e-05
4.35335e-05
4.16882e-05
3.95821e-05
3.72922e-05
3.48226e-05
3.22681e-05
2.96385e-05
2.69909e-05
2.43301e-05
2.16889e-05
1.90711e-05
1.65336e-05
1.40225e-05
1.16009e-05
9.27292e-06
7.03055e-06
4.85326e-06
2.76196e-06
7.79941e-07
-1.13084e-06
-2.96136e-06
-4.68728e-06
-6.34947e-06
-7.94601e-06
-9.45742e-06
-1.08975e-05
-1.22776e-05
-1.3592e-05
-1.48357e-05
-1.60157e-05
-1.71303e-05
-1.81973e-05
-1.92128e-05
-2.01547e-05
-2.1048e-05
-2.18984e-05
-2.26757e-05
-2.33975e-05
-2.4063e-05
-2.4674e-05
-2.52272e-05
-2.57113e-05
-2.61252e-05
-2.64982e-05
-2.68126e-05
-2.70467e-05
-2.72096e-05
-2.73163e-05
-2.73633e-05
-2.73374e-05
-2.7249e-05
-2.70881e-05
-2.68612e-05
-2.65854e-05
-2.62289e-05
-2.58028e-05
-2.53254e-05
-2.48043e-05
-2.42267e-05
-2.35716e-05
-2.28686e-05
-2.2142e-05
-2.13368e-05
-2.04633e-05
-1.95576e-05
-1.85816e-05
-1.75576e-05
-1.64247e-05
-1.52646e-05
-1.39669e-05
-1.26016e-05
-1.11073e-05
-9.47262e-06
-7.72186e-06
-5.78162e-06
-3.67741e-06
-1.42228e-06
1.08066e-06
3.757e-06
6.59153e-06
9.6815e-06
1.28297e-05
1.62711e-05
1.96513e-05
2.33076e-05
2.63847e-05
3.10457e-05
3.26794e-05
3.72575e-05
3.92446e-05
4.19162e-05
4.38715e-05
4.54145e-05
4.65323e-05
4.70736e-05
4.71742e-05
4.68038e-05
4.59932e-05
4.4774e-05
4.32032e-05
4.13444e-05
3.92214e-05
3.6893e-05
3.44089e-05
3.18572e-05
2.92123e-05
2.65561e-05
2.38965e-05
2.12505e-05
1.86424e-05
1.6094e-05
1.36095e-05
1.11996e-05
8.86904e-06
6.63613e-06
4.46642e-06
2.40718e-06
4.45169e-07
-1.44619e-06
-3.25752e-06
-4.97669e-06
-6.60589e-06
-8.16939e-06
-9.65962e-06
-1.10771e-05
-1.24225e-05
-1.36994e-05
-1.49303e-05
-1.60965e-05
-1.71822e-05
-1.82171e-05
-1.92127e-05
-2.01321e-05
-2.09997e-05
-2.18218e-05
-2.25684e-05
-2.32681e-05
-2.3922e-05
-2.45176e-05
-2.50523e-05
-2.55135e-05
-2.59135e-05
-2.62825e-05
-2.6576e-05
-2.67841e-05
-2.69437e-05
-2.70436e-05
-2.70795e-05
-2.70529e-05
-2.69463e-05
-2.6791e-05
-2.65672e-05
-2.62628e-05
-2.59032e-05
-2.55003e-05
-2.50293e-05
-2.44847e-05
-2.38958e-05
-2.32427e-05
-2.25561e-05
-2.18164e-05
-2.09999e-05
-2.01454e-05
-1.92384e-05
-1.82692e-05
-1.72592e-05
-1.61227e-05
-1.49554e-05
-1.36998e-05
-1.23347e-05
-1.08264e-05
-9.21919e-06
-7.47834e-06
-5.55055e-06
-3.46266e-06
-1.21893e-06
1.26815e-06
3.93038e-06
6.74833e-06
9.84668e-06
1.29837e-05
1.63872e-05
1.97783e-05
2.34034e-05
2.64657e-05
3.10466e-05
3.27034e-05
3.71041e-05
3.91582e-05
4.17777e-05
4.37096e-05
4.52617e-05
4.63371e-05
4.68641e-05
4.6949e-05
4.65588e-05
4.57262e-05
4.44904e-05
4.29227e-05
4.10335e-05
3.88893e-05
3.65725e-05
3.40718e-05
3.15078e-05
2.88752e-05
2.61977e-05
2.35399e-05
2.09042e-05
1.8295e-05
1.57651e-05
1.32722e-05
1.0879e-05
8.56309e-06
6.34408e-06
4.21337e-06
2.15467e-06
2.05755e-07
-1.65905e-06
-3.44445e-06
-5.13643e-06
-6.76421e-06
-8.31277e-06
-9.77451e-06
-1.11494e-05
-1.24765e-05
-1.37594e-05
-1.49441e-05
-1.60749e-05
-1.71631e-05
-1.81716e-05
-1.91391e-05
-2.00547e-05
-2.09035e-05
-2.16903e-05
-2.24384e-05
-2.31373e-05
-2.37462e-05
-2.43208e-05
-2.48584e-05
-2.53195e-05
-2.57162e-05
-2.60649e-05
-2.63352e-05
-2.6556e-05
-2.67121e-05
-2.68045e-05
-2.68441e-05
-2.68043e-05
-2.66954e-05
-2.65341e-05
-2.63168e-05
-2.60159e-05
-2.56575e-05
-2.52547e-05
-2.4781e-05
-2.42466e-05
-2.36524e-05
-2.30079e-05
-2.23147e-05
-2.15677e-05
-2.07762e-05
-1.99164e-05
-1.90154e-05
-1.80579e-05
-1.70396e-05
-1.59322e-05
-1.47781e-05
-1.35252e-05
-1.21596e-05
-1.06767e-05
-9.09716e-06
-7.35269e-06
-5.44039e-06
-3.3699e-06
-1.128e-06
1.32628e-06
3.97702e-06
6.8193e-06
9.8816e-06
1.30185e-05
1.64e-05
1.97892e-05
2.33974e-05
2.64354e-05
3.0965e-05
3.26543e-05
3.69107e-05
3.90367e-05
4.16206e-05
4.35351e-05
4.50852e-05
4.61242e-05
4.66673e-05
4.67578e-05
4.63407e-05
4.54928e-05
4.42603e-05
4.26785e-05
4.07827e-05
3.86265e-05
3.62928e-05
3.38144e-05
3.12249e-05
2.85774e-05
2.59332e-05
2.32784e-05
2.06435e-05
1.80355e-05
1.5502e-05
1.30308e-05
1.06569e-05
8.36199e-06
6.13579e-06
4.01091e-06
1.99722e-06
5.51383e-08
-1.79055e-06
-3.55515e-06
-5.2396e-06
-6.83258e-06
-8.36039e-06
-9.79946e-06
-1.1176e-05
-1.24909e-05
-1.37349e-05
-1.49062e-05
-1.60201e-05
-1.70904e-05
-1.80931e-05
-1.90395e-05
-1.99316e-05
-2.07688e-05
-2.15546e-05
-2.22855e-05
-2.29796e-05
-2.35936e-05
-2.41563e-05
-2.46805e-05
-2.51248e-05
-2.5516e-05
-2.58563e-05
-2.61423e-05
-2.63622e-05
-2.65153e-05
-2.66152e-05
-2.66322e-05
-2.65945e-05
-2.65141e-05
-2.63503e-05
-2.61142e-05
-2.58206e-05
-2.54824e-05
-2.50695e-05
-2.45837e-05
-2.4065e-05
-2.3485e-05
-2.284e-05
-2.21454e-05
-2.14121e-05
-2.06202e-05
-1.97605e-05
-1.88866e-05
-1.79284e-05
-1.69086e-05
-1.58353e-05
-1.46809e-05
-1.34184e-05
-1.20895e-05
-1.06313e-05
-9.03482e-06
-7.30494e-06
-5.42688e-06
-3.37275e-06
-1.134e-06
1.31346e-06
3.95337e-06
6.7727e-06
9.82591e-06
1.29659e-05
1.6338e-05
1.97237e-05
2.33031e-05
2.63496e-05
3.08136e-05
3.25693e-05
3.67084e-05
3.88703e-05
4.14453e-05
4.33667e-05
4.49173e-05
4.59543e-05
4.6491e-05
4.6581e-05
4.61592e-05
4.53166e-05
4.40828e-05
4.24838e-05
4.05776e-05
3.84208e-05
3.60941e-05
3.36108e-05
3.10241e-05
2.83741e-05
2.57243e-05
2.30773e-05
2.04455e-05
1.78422e-05
1.53211e-05
1.2875e-05
1.05002e-05
8.20438e-06
6.01593e-06
3.91487e-06
1.88659e-06
-3.03142e-08
-1.8639e-06
-3.61492e-06
-5.27323e-06
-6.85201e-06
-8.35074e-06
-9.80012e-06
-1.11601e-05
-1.24449e-05
-1.36697e-05
-1.48339e-05
-1.59522e-05
-1.70002e-05
-1.79777e-05
-1.89247e-05
-1.98155e-05
-2.0636e-05
-2.14161e-05
-2.21405e-05
-2.28249e-05
-2.34427e-05
-2.39908e-05
-2.45129e-05
-2.49667e-05
-2.53505e-05
-2.56948e-05
-2.59829e-05
-2.62034e-05
-2.63537e-05
-2.64487e-05
-2.64723e-05
-2.64385e-05
-2.63611e-05
-2.61979e-05
-2.59746e-05
-2.56924e-05
-2.53495e-05
-2.4945e-05
-2.4466e-05
-2.39386e-05
-2.33631e-05
-2.27369e-05
-2.20452e-05
-2.13008e-05
-2.05286e-05
-1.96878e-05
-1.88008e-05
-1.78608e-05
-1.68582e-05
-1.57915e-05
-1.46392e-05
-1.34016e-05
-1.20818e-05
-1.06197e-05
-9.05503e-06
-7.35737e-06
-5.48212e-06
-3.43167e-06
-1.211e-06
1.23018e-06
3.85397e-06
6.66492e-06
9.71321e-06
1.28511e-05
1.62049e-05
1.95969e-05
2.31815e-05
2.62211e-05
3.06193e-05
3.24751e-05
3.65009e-05
3.87201e-05
4.12835e-05
4.31926e-05
4.47612e-05
4.58066e-05
4.63594e-05
4.64411e-05
4.60231e-05
4.51928e-05
4.39571e-05
4.23366e-05
4.04438e-05
3.82981e-05
3.59516e-05
3.34638e-05
3.08795e-05
2.82437e-05
2.55779e-05
2.29246e-05
2.03133e-05
1.77168e-05
1.52117e-05
1.27691e-05
1.03984e-05
8.11831e-06
5.93243e-06
3.84763e-06
1.8503e-06
-6.32264e-08
-1.8914e-06
-3.62558e-06
-5.26413e-06
-6.84994e-06
-8.34172e-06
-9.74332e-06
-1.10953e-05
-1.23837e-05
-1.35973e-05
-1.47626e-05
-1.58556e-05
-1.68895e-05
-1.78786e-05
-1.88081e-05
-1.96943e-05
-2.05221e-05
-2.12943e-05
-2.20089e-05
-2.2668e-05
-2.32993e-05
-2.38737e-05
-2.43639e-05
-2.48261e-05
-2.52306e-05
-2.5565e-05
-2.58421e-05
-2.60627e-05
-2.62253e-05
-2.63307e-05