/*--------------------------------*- C++ -*----------------------------------*\
| =========                 |                                                 |
| \\      /  F ield         | OpenFOAM: The Open Source CFD Toolbox           |
|  \\    /   O peration     | Version:  2006                                  |
|   \\  /    A nd           | Website:  www.openfoam.com                      |
|    \\/     M anipulation  |                                                 |
\*---------------------------------------------------------------------------*/
FoamFile
{
    version     2.0;
    format      ascii;
    class       volScalarField;
    location    "20000";
    object      f;
}
// * * * * * * * * * * * * * * * * * * * * * * * * * * * * * * * * * * * * * //

dimensions      [0 0 -1 0 0 0 0];


internalField   nonuniform List<scalar> 
14751
(
0.000289991
0.000288717
0.000287322
0.000285703
0.000283918
0.000282
0.000279917
0.000277735
0.000275477
0.00027317
0.000270843
0.000268519
0.000266214
0.000263958
0.000261775
0.000259678
0.000257692
0.000255821
0.000254087
0.000252506
0.000251097
0.000249866
0.000248769
0.00024779
0.000246933
0.000246195
0.000245574
0.000245066
0.000244667
0.000244373
0.000244179
0.000244081
0.000244075
0.000244154
0.000244316
0.000244555
0.00024487
0.000245255
0.000245703
0.000246215
0.000246789
0.000247414
0.000248085
0.000248799
0.00024955
0.000250339
0.000251166
0.000252027
0.000252921
0.000253846
0.000254801
0.000255779
0.000256777
0.000257795
0.00025883
0.000259881
0.000260944
0.00026202
0.000263105
0.000264195
0.000265287
0.000266382
0.00026748
0.000268589
0.000269708
0.000270833
0.000271967
0.000273116
0.000274287
0.000275481
0.000276702
0.00027793
0.000279144
0.00028034
0.000281512
0.000282662
0.00028379
0.000284885
0.000285948
0.000286961
0.000287931
0.000288848
0.000289716
0.000290524
0.000291268
0.000291952
0.000292567
0.000293103
0.000293552
0.0002939
0.000294144
0.000294264
0.000294243
0.000294091
0.000293753
0.000293288
0.000292639
0.000291856
0.000290916
0.000746613
0.000742961
0.000739186
0.000735136
0.000730887
0.000726462
0.00072174
0.000716859
0.000711845
0.000706751
0.000701641
0.000696571
0.000691578
0.000686727
0.000682075
0.000677653
0.00067351
0.000669662
0.000666155
0.00066302
0.000660295
0.000658004
0.000656046
0.000654379
0.000653018
0.00065195
0.000651168
0.000650662
0.000650423
0.000650441
0.000650703
0.000651197
0.000651912
0.000652836
0.000653957
0.000655266
0.000656757
0.000658412
0.000660221
0.00066218
0.000664282
0.000666508
0.000668844
0.000671281
0.000673804
0.000676415
0.000679106
0.000681872
0.000684702
0.000687595
0.000690539
0.000693523
0.000696536
0.000699572
0.000702625
0.000705687
0.00070875
0.000711808
0.000714854
0.000717873
0.000720859
0.000723809
0.000726721
0.000729603
0.000732453
0.000735263
0.000738033
0.000740773
0.000743495
0.000746198
0.00074889
0.00075153
0.000754065
0.00075648
0.000758764
0.000760916
0.000762929
0.000764779
0.000766467
0.000767956
0.000769261
0.000770355
0.000771249
0.000771922
0.000772366
0.000772593
0.000772582
0.000772319
0.00077179
0.000770965
0.000769843
0.000768382
0.000766566
0.00076444
0.000761918
0.00075916
0.000756086
0.000752897
0.000749615
0.00113021
0.00112411
0.00111812
0.00111215
0.00110619
0.00110023
0.00109404
0.00108776
0.0010814
0.00107502
0.00106868
0.00106248
0.00105645
0.00105068
0.00104524
0.00104017
0.00103553
0.00103134
0.00102766
0.00102451
0.00102195
0.00102002
0.00101857
0.00101755
0.00101696
0.00101679
0.00101703
0.00101766
0.00101867
0.00102004
0.00102175
0.00102378
0.00102612
0.00102874
0.00103164
0.0010348
0.00103821
0.00104184
0.00104568
0.00104972
0.00105394
0.00105833
0.00106287
0.00106754
0.00107232
0.0010772
0.00108217
0.00108722
0.00109234
0.00109751
0.00110273
0.00110796
0.00111319
0.0011184
0.00112359
0.00112874
0.00113383
0.00113885
0.00114378
0.0011486
0.0011533
0.00115788
0.00116231
0.00116661
0.00117076
0.00117475
0.00117858
0.00118226
0.0011858
0.00118919
0.00119244
0.0011955
0.00119829
0.00120079
0.00120298
0.00120484
0.00120638
0.00120755
0.00120835
0.00120873
0.00120873
0.00120829
0.00120744
0.00120615
0.00120443
0.00120228
0.0011997
0.00119666
0.00119317
0.00118918
0.00118471
0.00117972
0.00117422
0.00116832
0.00116195
0.00115538
0.0011486
0.001142
0.00113569
0.00145807
0.0014493
0.001441
0.00143316
0.00142564
0.00141842
0.00141113
0.00140395
0.00139685
0.00138985
0.00138306
0.00137654
0.00137037
0.00136462
0.00135936
0.00135465
0.00135055
0.00134705
0.00134423
0.00134211
0.00134071
0.00134012
0.00134015
0.00134072
0.00134184
0.00134348
0.00134563
0.00134826
0.00135135
0.00135488
0.00135882
0.00136315
0.00136784
0.00137287
0.00137822
0.00138388
0.00138982
0.00139601
0.00140245
0.0014091
0.00141596
0.00142299
0.00143018
0.00143751
0.00144494
0.00145247
0.00146007
0.00146772
0.0014754
0.0014831
0.00149079
0.00149844
0.00150602
0.00151352
0.0015209
0.00152815
0.00153525
0.00154216
0.00154886
0.00155534
0.00156156
0.00156751
0.00157318
0.00157855
0.00158361
0.00158835
0.00159276
0.00159684
0.00160059
0.00160401
0.00160711
0.00160984
0.0016121
0.00161385
0.00161508
0.00161576
0.00161588
0.0016154
0.00161431
0.00161256
0.0016102
0.00160716
0.00160347
0.00159911
0.00159409
0.00158844
0.00158213
0.00157519
0.0015676
0.00155934
0.00155045
0.00154088
0.0015307
0.0015201
0.00150904
0.00149791
0.00148679
0.00147619
0.00146639
0.00173607
0.00172449
0.00171374
0.00170393
0.00169476
0.00168624
0.00167792
0.00166993
0.00166228
0.00165494
0.00164802
0.0016416
0.00163574
0.00163051
0.001626
0.00162223
0.00161926
0.0016171
0.00161578
0.00161533
0.00161575
0.00161712
0.00161924
0.00162203
0.00162547
0.00162954
0.00163419
0.00163941
0.00164516
0.0016514
0.00165811
0.00166526
0.00167281
0.00168073
0.001689
0.0016976
0.00170649
0.00171565
0.00172506
0.00173469
0.00174451
0.0017545
0.00176463
0.00177488
0.0017852
0.00179557
0.00180598
0.00181638
0.00182675
0.00183706
0.00184728
0.00185738
0.00186731
0.00187705
0.00188656
0.00189581
0.00190476
0.00191339
0.00192166
0.00192954
0.00193701
0.00194403
0.00195059
0.00195667
0.00196224
0.0019673
0.00197184
0.00197583
0.0019793
0.00198222
0.00198463
0.00198646
0.0019876
0.00198802
0.0019877
0.0019866
0.00198472
0.001982
0.00197844
0.00197399
0.00196869
0.00196248
0.0019554
0.00194742
0.00193858
0.0019289
0.00191839
0.00190705
0.00189491
0.00188196
0.00186825
0.00185378
0.00183864
0.00182308
0.00180715
0.0017913
0.00177569
0.00176095
0.00174748
0.00196645
0.00195205
0.00193886
0.00192698
0.00191607
0.00190614
0.0018967
0.00188789
0.00187968
0.00187206
0.00186513
0.00185896
0.00185361
0.00184913
0.0018456
0.00184305
0.0018415
0.00184097
0.00184146
0.00184298
0.00184553
0.00184921
0.00185376
0.00185909
0.00186518
0.00187198
0.00187945
0.00188755
0.00189623
0.00190547
0.00191521
0.00192541
0.00193604
0.00194707
0.00195846
0.00197016
0.00198217
0.00199444
0.00200694
0.00201964
0.0020325
0.0020455
0.0020586
0.00207177
0.00208497
0.00209815
0.00211129
0.00212435
0.00213729
0.00215008
0.00216267
0.00217502
0.00218708
0.00219881
0.00221017
0.00222112
0.00223162
0.00224162
0.0022511
0.00226001
0.00226833
0.00227602
0.00228306
0.00228941
0.00229507
0.00230002
0.00230424
0.00230773
0.00231048
0.0023125
0.00231381
0.00231437
0.00231405
0.00231282
0.00231064
0.0023075
0.00230337
0.0022982
0.00229199
0.0022847
0.00227635
0.00226691
0.00225639
0.0022448
0.00223216
0.00221852
0.00220388
0.00218828
0.00217175
0.00215431
0.00213604
0.00211695
0.00209717
0.00207701
0.00205657
0.00203635
0.0020166
0.00199795
0.00198095
0.00215125
0.00213429
0.00211888
0.00210508
0.00209249
0.0020812
0.00207071
0.00206112
0.00205244
0.00204463
0.0020378
0.002032
0.00202729
0.0020237
0.00202128
0.00202007
0.00202007
0.00202128
0.00202369
0.0020273
0.00203208
0.00203811
0.00204515
0.00205306
0.00206182
0.00207138
0.00208167
0.00209264
0.00210425
0.00211644
0.00212916
0.00214236
0.00215601
0.00217004
0.00218444
0.00219914
0.00221412
0.00222933
0.00224475
0.00226032
0.00227601
0.00229179
0.00230761
0.00232343
0.00233921
0.00235488
0.00237043
0.00238579
0.00240093
0.00241579
0.00243034
0.00244451
0.00245825
0.00247151
0.00248425
0.00249642
0.00250797
0.00251886
0.00252905
0.0025385
0.00254717
0.00255504
0.00256208
0.00256827
0.00257357
0.00257799
0.00258151
0.00258413
0.00258585
0.00258668
0.00258665
0.0025857
0.00258373
0.0025807
0.00257658
0.00257135
0.00256498
0.00255743
0.00254869
0.00253873
0.00252758
0.00251518
0.00250156
0.00248675
0.00247074
0.00245362
0.00243539
0.0024161
0.0023958
0.00237453
0.00235239
0.00232942
0.00230577
0.0022818
0.00225763
0.00223379
0.00221059
0.00218863
0.00216855
0.00229442
0.00227541
0.00225819
0.00224278
0.00222878
0.00221632
0.00220496
0.00219475
0.00218574
0.00217788
0.00217126
0.00216592
0.00216192
0.00215927
0.00215801
0.00215815
0.00215969
0.0021626
0.00216687
0.00217249
0.00217942
0.00218771
0.00219709
0.00220745
0.00221872
0.00223085
0.00224376
0.00225739
0.00227169
0.00228659
0.00230202
0.00231795
0.0023343
0.00235103
0.00236809
0.00238544
0.00240302
0.00242079
0.00243871
0.00245673
0.0024748
0.00249289
0.00251094
0.0025289
0.00254673
0.00256436
0.00258175
0.00259884
0.00261557
0.00263191
0.00264778
0.00266315
0.00267794
0.0026921
0.00270558
0.00271833
0.0027303
0.00274145
0.00275173
0.00276112
0.00276958
0.00277707
0.00278359
0.0027891
0.00279359
0.00279706
0.00279951
0.00280094
0.00280135
0.00280077
0.00279924
0.00279671
0.00279305
0.00278825
0.00278228
0.00277512
0.00276675
0.00275712
0.00274622
0.00273402
0.00272056
0.00270578
0.0026897
0.00267235
0.00265374
0.00263395
0.00261299
0.00259092
0.00256781
0.00254371
0.00251874
0.00249297
0.00246655
0.00243984
0.00241302
0.00238658
0.00236088
0.00233645
0.00231401
0.0024012
0.00238081
0.00236236
0.00234583
0.00233083
0.00231757
0.00230567
0.00229514
0.00228604
0.00227833
0.00227207
0.00226732
0.0022641
0.00226242
0.0022623
0.00226375
0.00226675
0.00227126
0.00227725
0.0022847
0.00229356
0.00230386
0.00231533
0.00232783
0.00234129
0.00235566
0.00237083
0.00238676
0.00240335
0.00242055
0.00243828
0.00245648
0.00247508
0.00249404
0.00251328
0.00253276
0.00255242
0.00257222
0.00259209
0.00261199
0.00263187
0.00265167
0.00267134
0.00269082
0.00271006
0.00272899
0.00274755
0.00276569
0.00278335
0.00280047
0.002817
0.00283288
0.00284804
0.00286242
0.00287598
0.00288867
0.00290043
0.00291123
0.00292102
0.00292979
0.0029375
0.00294413
0.00294967
0.0029541
0.00295741
0.00295962
0.00296073
0.00296075
0.0029597
0.00295761
0.00295452
0.00295039
0.00294512
0.00293867
0.00293104
0.0029222
0.00291214
0.00290081
0.0028882
0.00287429
0.00285909
0.00284258
0.00282475
0.00280564
0.00278526
0.00276368
0.00274093
0.00271707
0.00269218
0.00266632
0.00263962
0.00261217
0.00258411
0.00255581
0.00252745
0.00249949
0.00247231
0.00244634
0.00242237
0.00247793
0.00245683
0.00243772
0.00242055
0.00240499
0.00239129
0.00237915
0.00236853
0.00235955
0.00235212
0.00234633
0.00234219
0.00233974
0.00233897
0.00233989
0.00234249
0.00234675
0.00235263
0.00236008
0.00236907
0.00237954
0.00239149
0.00240466
0.00241891
0.00243415
0.00245032
0.00246731
0.00248504
0.00250345
0.00252245
0.00254196
0.00256191
0.00258223
0.00260285
0.00262371
0.00264475
0.00266591
0.00268713
0.00270835
0.00272951
0.00275055
0.00277143
0.00279207
0.00281242
0.00283241
0.00285197
0.00287104
0.00288957
0.0029075
0.00292475
0.00294129
0.00295704
0.00297195
0.00298596
0.00299902
0.00301108
0.0030221
0.00303205
0.00304089
0.00304861
0.00305518
0.0030606
0.00306485
0.00306794
0.00306986
0.00307064
0.0030703
0.00306885
0.00306633
0.00306277
0.00305823
0.00305265
0.00304596
0.00303813
0.00302916
0.00301901
0.00300768
0.00299514
0.00298136
0.00296633
0.00295005
0.0029325
0.00291367
0.00289361
0.00287231
0.00284983
0.00282623
0.00280155
0.00277588
0.0027493
0.00272192
0.00269384
0.00266521
0.00263636
0.0026075
0.00257901
0.0025513
0.00252469
0.00249997
0.00253018
0.00250894
0.00248964
0.00247225
0.00245646
0.00244262
0.00243046
0.00241993
0.00241116
0.00240408
0.00239875
0.00239518
0.00239339
0.00239338
0.00239514
0.00239866
0.00240392
0.00241086
0.00241943
0.00242959
0.00244128
0.00245446
0.00246889
0.00248443
0.00250098
0.00251845
0.00253675
0.0025558
0.00257549
0.00259575
0.00261649
0.00263763
0.00265909
0.00268081
0.0027027
0.00272471
0.00274676
0.0027688
0.00279076
0.00281257
0.00283416
0.00285549
0.00287648
0.00289707
0.0029172
0.00293678
0.00295577
0.00297409
0.0029917
0.00300853
0.00302452
0.00303962
0.00305378
0.00306694
0.00307905
0.00309007
0.00309997
0.00310872
0.0031163
0.0031227
0.00312791
0.00313193
0.00313477
0.00313642
0.00313691
0.00313626
0.00313452
0.0031317
0.00312784
0.003123
0.00311722
0.00311047
0.00310268
0.00309384
0.00308393
0.00307292
0.00306082
0.00304759
0.00303321
0.00301768
0.00300097
0.00298308
0.00296399
0.00294374
0.00292231
0.00289978
0.00287617
0.00285155
0.002826
0.00279958
0.00277243
0.00274465
0.00271636
0.00268786
0.00265936
0.00263119
0.00260375
0.00257724
0.00255246
0.00256245
0.00254153
0.00252239
0.00250508
0.00248932
0.00247552
0.00246349
0.00245313
0.00244461
0.00243785
0.00243289
0.00242977
0.00242848
0.00242901
0.00243137
0.00243553
0.00244146
0.00244912
0.00245843
0.00246936
0.00248183
0.0024958
0.00251103
0.00252738
0.00254474
0.00256302
0.00258211
0.00260193
0.00262238
0.00264336
0.00266478
0.00268656
0.00270861
0.00273086
0.00275322
0.00277563
0.002798
0.00282029
0.00284242
0.0028643
0.00288589
0.00290711
0.0029279
0.0029482
0.00296793
0.00298702
0.00300542
0.00302306
0.00303988
0.00305584
0.00307088
0.00308495
0.00309799
0.00310997
0.00312083
0.00313056
0.00313912
0.00314649
0.00315266
0.00315764
0.00316143
0.00316403
0.00316546
0.00316574
0.00316489
0.00316296
0.00315999
0.00315601
0.00315107
0.00314523
0.00313853
0.00313096
0.00312246
0.00311302
0.00310261
0.00309121
0.00307883
0.00306545
0.00305103
0.00303558
0.00301905
0.00300146
0.00298275
0.00296298
0.00294212
0.00292023
0.00289735
0.00287352
0.00284882
0.00282332
0.00279715
0.00277039
0.00274316
0.00271574
0.00268829
0.00266111
0.00263457
0.00260876
0.00258445
0.00257825
0.002558
0.00253926
0.00252225
0.00250668
0.00249304
0.00248118
0.00247101
0.0024627
0.00245617
0.00245147
0.00244862
0.00244762
0.00244846
0.00245113
0.00245561
0.00246188
0.00246988
0.00247954
0.00249082
0.00250365
0.00251796
0.00253353
0.00255022
0.0025679
0.0025865
0.00260589
0.00262598
0.00264666
0.00266784
0.00268943
0.00271133
0.00273345
0.00275571
0.00277802
0.00280031
0.0028225
0.00284453
0.00286632
0.0028878
0.00290889
0.00292954
0.00294968
0.00296924
0.00298815
0.00300635
0.00302378
0.00304038
0.00305609
0.00307088
0.00308469
0.00309747
0.0031092
0.00311981
0.00312929
0.00313761
0.00314475
0.0031507
0.00315547
0.00315906
0.0031615
0.00316278
0.00316295
0.00316203
0.00316005
0.00315707
0.00315314
0.00314829
0.00314258
0.00313607
0.00312882
0.00312082
0.00311201
0.00310237
0.0030919
0.00308056
0.00306837
0.00305531
0.00304135
0.00302647
0.00301065
0.00299388
0.0029761
0.00295736
0.00293763
0.00291696
0.00289536
0.00287289
0.00284963
0.00282562
0.00280099
0.00277583
0.00275022
0.0027244
0.00269853
0.00267284
0.00264769
0.00262303
0.0025996
0.00258033
0.00256097
0.00254282
0.00252622
0.00251094
0.00249751
0.00248583
0.0024758
0.00246762
0.0024612
0.0024566
0.00245382
0.00245288
0.00245376
0.00245645
0.00246093
0.00246719
0.00247516
0.00248479
0.00249602
0.00250879
0.00252301
0.00253848
0.00255505
0.00257261
0.00259106
0.00261028
0.00263017
0.00265063
0.00267155
0.00269283
0.00271438
0.00273611
0.00275792
0.00277973
0.00280146
0.00282303
0.00284438
0.00286543
0.00288609
0.00290631
0.00292603
0.00294516
0.00296366
0.00298146
0.00299848
0.00301469
0.00303001
0.00304442
0.00305786
0.0030703
0.00308169
0.00309201
0.00310121
0.00310929
0.00311622
0.00312199
0.00312661
0.00313008
0.00313243
0.00313368
0.00313384
0.00313297
0.00313109
0.00312825
0.0031245
0.00311991
0.00311451
0.00310836
0.00310154
0.00309409
0.00308602
0.00307726
0.00306782
0.00305766
0.00304678
0.00303518
0.00302284
0.00300974
0.00299586
0.00298115
0.00296561
0.00294919
0.0029319
0.00291372
0.00289468
0.0028748
0.00285412
0.00283271
0.00281062
0.00278795
0.00276479
0.00274119
0.00271737
0.00269346
0.00266962
0.00264619
0.00262302
0.00260075
0.00257084
0.00255253
0.00253504
0.00251893
0.00250398
0.00249076
0.00247922
0.00246926
0.0024611
0.00245466
0.00244998
0.00244707
0.00244594
0.00244659
0.00244901
0.00245318
0.00245909
0.0024667
0.00247592
0.00248673
0.00249904
0.00251277
0.00252774
0.0025438
0.00256082
0.0025787
0.00259734
0.00261662
0.00263643
0.00265668
0.00267726
0.00269806
0.002719
0.00273999
0.00276093
0.00278174
0.00280235
0.00282268
0.00284267
0.00286223
0.0028813
0.00289982
0.00291772
0.00293494
0.00295143
0.00296711
0.00298196
0.0029959
0.00300891
0.00302095
0.00303198
0.00304198
0.00305092
0.00305878
0.00306553
0.00307118
0.00307572
0.00307916
0.00308153
0.00308283
0.00308312
0.00308242
0.00308076
0.0030782
0.00307478
0.00307057
0.00306561
0.00305997
0.00305371
0.00304689
0.00303957
0.00303174
0.00302337
0.00301443
0.00300491
0.0029948
0.0029841
0.0029728
0.00296087
0.00294829
0.002935
0.002921
0.00290622
0.00289069
0.00287435
0.00285724
0.00283938
0.00282078
0.00280151
0.00278161
0.00276118
0.0027403
0.00271899
0.00269743
0.00267573
0.00265399
0.00263251
0.00261104
0.00259014
0.00255148
0.0025343
0.00251754
0.00250194
0.00248732
0.00247429
0.00246283
0.00245286
0.00244459
0.00243797
0.00243302
0.00242977
0.00242823
0.00242839
0.00243027
0.00243384
0.0024391
0.00244601
0.0024545
0.00246454
0.00247604
0.00248894
0.00250305
0.00251823
0.00253434
0.00255131
0.002569
0.00258732
0.00260615
0.00262539
0.00264493
0.00266467
0.00268451
0.00270437
0.00272416
0.00274378
0.00276317
0.00278225
0.00280096
0.00281922
0.00283696
0.00285413
0.00287066
0.0028865
0.00290159
0.00291587
0.00292931
0.00294185
0.00295348
0.00296415
0.00297384
0.00298253
0.0029902
0.00299684
0.00300242
0.00300696
0.00301046
0.00301293
0.00301441
0.00301491
0.00301449
0.00301316
0.00301099
0.00300802
0.0030043
0.00299989
0.00299486
0.00298926
0.00298316
0.00297661
0.00296969
0.00296236
0.00295462
0.00294643
0.0029378
0.00292869
0.00291913
0.00290909
0.00289855
0.00288747
0.0028758
0.00286354
0.00285061
0.00283702
0.00282272
0.00280773
0.00279206
0.00277572
0.00275877
0.00274125
0.00272324
0.0027048
0.00268594
0.00266681
0.00264746
0.00262798
0.0026086
0.00258897
0.00256955
0.00252367
0.00250766
0.00249163
0.00247654
0.00246223
0.00244934
0.00243789
0.0024278
0.00241931
0.00241235
0.00240696
0.00240318
0.00240101
0.00240045
0.00240153
0.00240424
0.00240857
0.0024145
0.00242197
0.00243094
0.00244134
0.0024531
0.00246604
0.00248004
0.00249496
0.00251071
0.00252717
0.00254425
0.00256182
0.00257978
0.00259803
0.00261646
0.00263498
0.0026535
0.00267193
0.00269019
0.00270819
0.00272588
0.00274318
0.00276003
0.00277635
0.0027921
0.00280721
0.00282163
0.00283532
0.00284822
0.00286029
0.0028715
0.00288182
0.00289122
0.00289969
0.00290722
0.00291377
0.00291936
0.00292396
0.00292759
0.00293026
0.00293199
0.0029328
0.00293274
0.00293185
0.00293015
0.00292771
0.00292458
0.0029208
0.00291644
0.00291157
0.00290623
0.00290051
0.00289445
0.00288812
0.0028815
0.00287457
0.00286732
0.00285974
0.0028518
0.00284352
0.00283489
0.00282586
0.00281642
0.0028065
0.00279608
0.0027851
0.00277356
0.0027614
0.00274863
0.00273525
0.00272126
0.00270673
0.00269167
0.00267615
0.00266025
0.00264392
0.00262729
0.00261038
0.00259324
0.00257602
0.00255832
0.00254045
0.00248858
0.00247372
0.00245842
0.00244381
0.00242978
0.00241699
0.00240546
0.00239516
0.00238632
0.00237889
0.00237291
0.00236842
0.00236542
0.00236395
0.00236401
0.00236563
0.00236879
0.0023735
0.0023797
0.00238735
0.0023964
0.00240677
0.00241831
0.00243089
0.00244438
0.00245869
0.0024737
0.00248932
0.00250543
0.00252192
0.00253871
0.00255567
0.00257271
0.00258976
0.00260671
0.00262349
0.00264002
0.00265625
0.00267209
0.00268749
0.00270238
0.00271671
0.00273043
0.00274348
0.00275583
0.00276742
0.00277822
0.0027882
0.00279734
0.00280562
0.00281302
0.00281954
0.00282517
0.00282989
0.00283371
0.00283664
0.00283869
0.00283989
0.00284026
0.00283985
0.0028387
0.00283686
0.00283436
0.00283126
0.00282762
0.00282351
0.00281898
0.00281409
0.00280891
0.0028035
0.0027979
0.00279212
0.00278614
0.00277994
0.00277351
0.00276683
0.00275993
0.00275277
0.00274532
0.00273757
0.00272944
0.00272092
0.00271193
0.00270247
0.00269248
0.00268195
0.00267088
0.00265928
0.00264717
0.0026346
0.0026216
0.00260824
0.00259446
0.00258036
0.00256591
0.00255113
0.0025361
0.00252035
0.00250404
0.00244721
0.00243346
0.00241888
0.00240472
0.00239093
0.00237817
0.0023665
0.0023559
0.00234662
0.0023386
0.00233189
0.00232653
0.00232255
0.00231998
0.00231885
0.00231918
0.00232099
0.00232428
0.00232901
0.00233516
0.00234267
0.00235147
0.00236141
0.00237239
0.00238428
0.00239698
0.00241039
0.00242441
0.00243892
0.00245384
0.00246904
0.00248444
0.00249993
0.00251543
0.00253085
0.00254612
0.00256116
0.00257591
0.00259031
0.00260429
0.00261779
0.00263076
0.00264316
0.00265493
0.00266603
0.00267643
0.00268609
0.00269498
0.00270309
0.0027104
0.00271691
0.0027226
0.00272748
0.00273153
0.00273476
0.00273718
0.0027388
0.00273966
0.00273979
0.00273922
0.002738
0.00273617
0.00273379
0.0027309
0.00272756
0.00272383
0.00271978
0.00271546
0.00271094
0.00270627
0.00270151
0.00269665
0.00269167
0.00268658
0.00268136
0.00267599
0.00267048
0.00266481
0.00265897
0.00265291
0.00264657
0.00263993
0.00263291
0.00262551
0.00261766
0.00260934
0.00260056
0.0025913
0.0025816
0.00257147
0.00256097
0.00255012
0.00253885
0.00252725
0.00251524
0.00250279
0.00248994
0.00247612
0.00246137
0.00240044
0.00238777
0.00237386
0.00236012
0.00234654
0.00233376
0.00232189
0.00231092
0.0023011
0.00229238
0.00228483
0.00227849
0.0022734
0.0022696
0.00226713
0.00226604
0.00226635
0.00226808
0.0022712
0.00227569
0.00228152
0.00228861
0.00229685
0.00230611
0.00231628
0.00232728
0.00233899
0.00235133
0.00236418
0.00237745
0.00239103
0.00240482
0.00241874
0.00243269
0.00244659
0.00246036
0.00247394
0.00248726
0.00250027
0.0025129
0.00252509
0.0025368
0.00254797
0.00255858
0.00256857
0.0025779
0.00258656
0.00259452
0.00260176
0.00260826
0.00261404
0.00261908
0.00262337
0.00262692
0.00262973
0.00263181
0.00263318
0.00263387
0.0026339
0.00263333
0.00263218
0.00263052
0.00262837
0.00262581
0.00262288
0.00261964
0.00261616
0.00261248
0.00260869
0.00260483
0.00260094
0.00259703
0.0025931
0.00258914
0.00258512
0.00258105
0.00257692
0.00257273
0.00256845
0.00256405
0.00255945
0.00255464
0.00254954
0.00254413
0.00253835
0.00253218
0.00252561
0.00251863
0.00251126
0.00250351
0.00249541
0.00248701
0.00247819
0.00246901
0.00245938
0.00244921
0.00243848
0.00242656
0.00241334
0.00234907
0.00233741
0.00232416
0.00231081
0.00229738
0.00228455
0.00227243
0.00226103
0.0022506
0.00224112
0.00223265
0.00222524
0.00221894
0.00221382
0.00220992
0.0022073
0.00220601
0.00220608
0.00220748
0.00221024
0.0022143
0.00221961
0.00222606
0.00223354
0.00224194
0.00225118
0.00226117
0.00227179
0.00228296
0.00229458
0.00230654
0.00231875
0.00233111
0.00234355
0.00235597
0.00236831
0.00238049
0.00239246
0.00240417
0.00241554
0.00242653
0.00243709
0.00244717
0.00245673
0.00246574
0.00247416
0.00248196
0.00248913
0.00249564
0.0025015
0.0025067
0.00251123
0.0025151
0.0025183
0.00252084
0.00252272
0.00252397
0.00252461
0.00252468
0.00252422
0.00252326
0.00252185
0.00252005
0.00251789
0.00251544
0.00251275
0.00250989
0.00250691
0.00250387
0.00250083
0.00249783
0.00249488
0.00249198
0.00248913
0.0024863
0.00248348
0.00248069
0.00247792
0.00247514
0.00247232
0.00246939
0.00246633
0.00246305
0.00245954
0.00245574
0.00245162
0.00244717
0.00244235
0.00243721
0.00243173
0.00242595
0.00241988
0.00241342
0.00240657
0.00239922
0.00239126
0.00238257
0.00237249
0.00236075
0.00229381
0.00228312
0.00227049
0.00225749
0.0022442
0.00223129
0.00221888
0.00220701
0.00219595
0.00218565
0.0021762
0.00216767
0.00216011
0.0021536
0.0021482
0.002144
0.00214105
0.0021394
0.00213906
0.00214003
0.00214228
0.00214578
0.00215042
0.00215611
0.00216273
0.00217021
0.00217847
0.0021874
0.00219692
0.00220692
0.00221731
0.00222798
0.00223885
0.00224984
0.00226086
0.00227185
0.00228273
0.00229345
0.00230395
0.00231418
0.00232409
0.00233362
0.00234273
0.00235138
0.00235954
0.00236718
0.00237426
0.00238078
0.00238671
0.00239205
0.00239681
0.00240097
0.00240454
0.00240752
0.0024099
0.0024117
0.00241294
0.00241364
0.00241384
0.00241357
0.00241288
0.0024118
0.00241038
0.00240868
0.00240675
0.00240465
0.00240243
0.00240015
0.00239787
0.00239565
0.00239352
0.00239151
0.0023896
0.00238781
0.00238611
0.00238449
0.00238297
0.00238154
0.00238018
0.00237885
0.00237748
0.00237606
0.0023745
0.00237278
0.00237084
0.00236864
0.00236618
0.00236341
0.00236036
0.00235703
0.00235344
0.00234959
0.00234535
0.00234073
0.00233556
0.00232969
0.00232297
0.00231464
0.00230433
0.00223534
0.00222556
0.00221353
0.00220085
0.00218768
0.00217467
0.00216196
0.00214962
0.00213789
0.00212676
0.00211631
0.00210663
0.00209778
0.00208986
0.00208295
0.00207714
0.00207252
0.00206914
0.00206703
0.00206621
0.00206667
0.00206837
0.00207122
0.00207513
0.00208
0.00208577
0.00209234
0.00209964
0.00210756
0.002116
0.00212488
0.0021341
0.00214357
0.0021532
0.00216291
0.00217265
0.00218233
0.00219191
0.00220133
0.00221054
0.00221948
0.0022281
0.00223637
0.00224424
0.00225168
0.00225865
0.00226514
0.00227113
0.0022766
0.00228155
0.00228597
0.00228988
0.00229326
0.00229611
0.00229843
0.00230024
0.00230154
0.00230238
0.00230277
0.00230276
0.00230238
0.00230167
0.00230068
0.00229946
0.00229807
0.00229655
0.00229497
0.00229338
0.00229184
0.0022904
0.00228911
0.00228799
0.00228702
0.00228623
0.00228559
0.00228509
0.00228475
0.00228457
0.00228452
0.00228457
0.00228466
0.00228475
0.00228478
0.00228471
0.0022845
0.00228409
0.00228348
0.00228261
0.00228153
0.0022802
0.00227866
0.00227688
0.00227474
0.00227221
0.00226909
0.00226521
0.00226035
0.0022537
0.00224473
0.00217427
0.00216535
0.00215389
0.00214152
0.00212847
0.00211536
0.00210235
0.00208953
0.00207714
0.00206519
0.00205375
0.00204292
0.0020328
0.00202348
0.00201506
0.00200767
0.00200139
0.0019963
0.00199246
0.00198988
0.00198858
0.00198852
0.00198963
0.00199182
0.00199501
0.00199913
0.00200409
0.00200982
0.00201622
0.0020232
0.00203067
0.00203853
0.00204668
0.00205506
0.00206358
0.00207217
0.00208076
0.00208931
0.00209777
0.00210607
0.00211416
0.002122
0.00212953
0.00213674
0.00214357
0.00215
0.002156
0.00216157
0.00216668
0.00217133
0.00217552
0.00217925
0.00218253
0.00218533
0.00218767
0.00218954
0.00219098
0.002192
0.00219263
0.00219291
0.00219287
0.00219255
0.002192
0.00219127
0.0021904
0.00218946
0.00218849
0.00218756
0.00218672
0.00218603
0.00218552
0.00218522
0.00218514
0.00218527
0.0021856
0.00218613
0.00218688
0.00218783
0.00218898
0.00219029
0.00219171
0.00219319
0.00219467
0.00219612
0.00219748
0.00219872
0.0021998
0.00220069
0.0022014
0.00220194
0.00220228
0.00220243
0.00220224
0.00220166
0.00220046
0.00219845
0.00219533
0.00219026
0.00218259
0.00211116
0.00210307
0.00209216
0.0020801
0.00206716
0.00205397
0.00204068
0.00202742
0.0020144
0.00200165
0.00198925
0.00197732
0.00196595
0.00195527
0.00194539
0.00193645
0.00192856
0.00192183
0.0019163
0.00191204
0.00190905
0.0019073
0.00190674
0.00190729
0.00190888
0.00191143
0.00191488
0.00191914
0.00192412
0.00192974
0.0019359
0.0019425
0.00194945
0.00195668
0.00196411
0.00197166
0.00197928
0.00198692
0.00199451
0.00200201
0.00200937
0.00201653
0.00202345
0.00203008
0.00203641
0.00204239
0.00204801
0.00205324
0.00205808
0.00206251
0.00206654
0.00207018
0.00207342
0.00207623
0.00207864
0.00208063
0.00208224
0.00208347
0.00208437
0.00208495
0.00208526
0.00208534
0.00208522
0.00208496
0.00208461
0.00208421
0.00208383
0.00208352
0.00208333
0.00208332
0.00208353
0.00208399
0.0020847
0.00208567
0.00208688
0.00208834
0.00209006
0.00209204
0.00209427
0.00209672
0.00209933
0.00210206
0.00210485
0.00210766
0.00211045
0.00211317
0.00211579
0.00211827
0.00212063
0.00212285
0.00212494
0.00212685
0.00212846
0.00212967
0.00213025
0.00212997
0.00212849
0.00212492
0.00211846
0.00204656
0.00203926
0.00202888
0.00201714
0.00200433
0.00199109
0.00197757
0.0019639
0.0019503
0.0019368
0.0019235
0.00191052
0.00189798
0.001886
0.00187473
0.00186431
0.00185489
0.00184658
0.00183946
0.00183359
0.00182899
0.00182566
0.00182353
0.00182254
0.00182262
0.00182372
0.00182574
0.00182864
0.00183231
0.00183667
0.00184163
0.00184708
0.00185294
0.00185914
0.00186558
0.00187221
0.00187897
0.00188579
0.00189263
0.00189944
0.00190616
0.00191273
0.00191912
0.00192529
0.0019312
0.00193682
0.00194213
0.0019471
0.00195174
0.00195602
0.00195996
0.00196356
0.0019668
0.00196968
0.00197219
0.00197433
0.00197613
0.0019776
0.00197877
0.00197967
0.00198033
0.00198079
0.00198109
0.00198128
0.0019814
0.00198152
0.00198167
0.00198193
0.00198233
0.00198295
0.00198381
0.00198495
0.00198637
0.00198808
0.00199008
0.00199236
0.00199494
0.00199783
0.00200101
0.00200447
0.00200813
0.00201197
0.00201592
0.00201994
0.002024
0.00202805
0.00203204
0.00203595
0.00203978
0.00204353
0.00204718
0.00205069
0.00205393
0.00205679
0.00205901
0.00206033
0.00206037
0.00205818
0.00205288
0.00198095
0.00197442
0.00196458
0.00195316
0.00194051
0.00192726
0.00191356
0.00189955
0.00188544
0.00187127
0.00185714
0.00184319
0.00182955
0.00181636
0.00180379
0.001792
0.00178114
0.00177135
0.00176273
0.00175536
0.00174927
0.00174445
0.00174086
0.00173844
0.00173713
0.00173687
0.0017376
0.00173924
0.00174171
0.00174493
0.00174879
0.00175321
0.00175809
0.00176336
0.00176893
0.00177473
0.00178072
0.00178683
0.00179301
0.00179922
0.0018054
0.00181148
0.00181743
0.00182321
0.00182878
0.00183411
0.00183918
0.00184396
0.00184846
0.00185265
0.00185654
0.00186014
0.00186343
0.0018664
0.00186904
0.00187135
0.00187336
0.00187507
0.00187652
0.00187772
0.00187872
0.00187954
0.00188023
0.00188084
0.00188141
0.00188198
0.00188263
0.00188339
0.00188433
0.00188549
0.00188693
0.00188866
0.00189071
0.00189307
0.00189575
0.00189875
0.00190208
0.00190574
0.00190975
0.00191408
0.00191867
0.00192347
0.00192842
0.00193349
0.00193866