/*--------------------------------*- C++ -*----------------------------------*\
| =========                 |                                                 |
| \\      /  F ield         | OpenFOAM: The Open Source CFD Toolbox           |
|  \\    /   O peration     | Version:  2006                                  |
|   \\  /    A nd           | Website:  www.openfoam.com                      |
|    \\/     M anipulation  |                                                 |
\*---------------------------------------------------------------------------*/
FoamFile
{
    version     2.0;
    format      ascii;
    class       volScalarField;
    location    "20000";
    object      gradpz;
}
// * * * * * * * * * * * * * * * * * * * * * * * * * * * * * * * * * * * * * //

dimensions      [0 1 -2 0 0 0 0];


internalField   nonuniform List<scalar> 
14751
(
0
0
-2.22186e-24
4.15733e-24
-1.92961e-24
1.20577e-25
-1.20573e-25
8.69325e-25
2.40678e-26
3.23332e-27
1.15206e-26
-1.15209e-26
2.03591e-26
-2.03605e-26
-1.18282e-24
1.67691e-26
4.86631e-25
3.04503e-26
-1.47365e-26
1.30201e-26
-5.12625e-26
2.383e-26
-3.364e-26
3.25666e-26
4.16897e-26
-2.95946e-26
0
0
3.67573e-26
9.04726e-27
-2.70886e-26
-1.80511e-26
0
-1.84011e-26
-4.7361e-27
9.59045e-27
-4.85426e-27
0
0
0
-2.88143e-27
-7.49424e-25
0
-2.04405e-25
0
8.89335e-28
-2.33484e-25
-2.42378e-28
-1.05953e-29
-2.74852e-28
2.76457e-25
0
2.38844e-27
-2.38847e-27
5.16658e-27
-5.16664e-27
-5.56821e-27
-3.57301e-25
-3.75996e-25
-1.56922e-24
2.5157e-26
-1.27871e-26
3.44681e-24
-2.76503e-26
1.4032e-26
0
9.93757e-25
-3.05013e-26
-5.06952e-25
-5.19271e-25
5.31326e-25
0
0
-7.1386e-26
-5.0508e-25
7.39777e-26
1.21858e-27
1.1602e-27
1.09856e-27
-1.32489e-24
-1.26333e-24
-1.19781e-24
-8.03014e-26
0
-1.3555e-24
-1.32351e-24
1.37194e-24
0
0
0
-2.67594e-24
-2.0779e-26
-1.8627e-25
4.12754e-26
4.04149e-26
-4.04146e-26
6.41729e-25
-9.77858e-27
0
-8.70515e-27
7.02823e-23
4.20326e-24
-6.15842e-24
-1.8715e-24
7.45286e-24
2.23142e-22
-8.38888e-25
-1.99697e-22
-3.06811e-24
-1.79303e-22
0
1.5717e-22
8.88899e-24
-1.60716e-23
5.21286e-25
1.44541e-23
-7.18778e-24
-4.56952e-23
-6.28067e-24
4.46227e-26
4.29838e-23
-4.55865e-23
4.82441e-23
-4.74519e-24
3.45387e-26
0
-3.32071e-23
-2.05024e-24
2.01435e-24
-1.97105e-24
8.28723e-27
-1.39634e-23
-1.50944e-23
-1.01558e-24
-1.56866e-23
1.7213e-23
3.54207e-26
-1.12374e-24
6.03362e-25
2.40467e-26
1.25003e-26
0
1.73471e-25
3.69952e-25
-6.41485e-24
-2.75665e-24
3.09264e-24
0
0
8.21105e-25
-1.19436e-25
-5.18424e-25
-2.09596e-26
1.10068e-24
-5.61225e-25
0
3.08243e-25
3.19587e-25
4.01765e-24
9.03844e-26
9.05071e-26
-5.26473e-23
-4.83372e-23
4.98373e-23
0
-7.5168e-24
6.70205e-24
4.35893e-25
5.77046e-23
-4.58656e-25
-7.59706e-24
-1.15497e-22
-1.25903e-22
-1.57241e-23
1.62733e-23
1.33983e-22
1.36565e-22
-1.75051e-23
1.86739e-23
-1.42738e-22
1.14165e-24
-1.86219e-23
3.75676e-23
-1.77603e-23
-3.06682e-22
8.52293e-24
-9.78397e-24
0
4.9598e-24
-2.49366e-24
-3.20455e-22
-1.07666e-24
7.43348e-24
-4.96122e-24
-1.53991e-22
-1.84051e-24
-1.19695e-24
0
-8.33199e-27
-6.7213e-23
3.98019e-24
-3.96145e-24
-4.75796e-22
4.52474e-22
-2.14407e-22
1.54082e-24
1.88956e-22
3.52088e-22
-1.72105e-22
1.00714e-23
-1.45722e-22
0
-2.37186e-22
-1.51692e-23
0
0
3.58792e-23
1.14128e-23
0
-2.94275e-23
2.72622e-23
1.04287e-22
6.62173e-23
-7.80401e-24
6.89327e-23
2.96781e-23
-3.60277e-24
3.5903e-24
5.65653e-23
-5.99669e-23
-3.53995e-23
-1.78607e-23
0
1.29503e-23
-1.52569e-23
3.32187e-23
0
0
1.10692e-24
-2.25729e-24
1.15048e-24
-1.95803e-23
-2.04231e-23
5.32801e-24
2.78071e-24
-2.53184e-24
-4.67464e-25
9.67272e-26
-4.12155e-24
0
-9.13698e-25
1.48806e-23
9.51493e-25
3.43344e-23
7.74531e-26
-2.13685e-24
-4.59293e-24
4.5984e-24
0
8.52669e-23
3.63392e-23
-4.27949e-23
-5.53605e-23
-6.82955e-23
-1.99173e-22
-1.22221e-23
1.22579e-23
-2.55072e-22
2.09514e-22
2.14957e-22
8.23669e-23
1.40829e-22
2.91511e-23
-2.92929e-23
-1.20846e-22
3.70336e-22
3.1722e-23
-3.19153e-23
1.31015e-22
5.67275e-22
5.0935e-22
3.46523e-23
-3.4911e-23
3.02325e-22
8.38842e-26
-3.64498e-23
1.84006e-23
9.28481e-24
-6.0802e-22
3.031e-22
6.00607e-22
-6.02669e-22
9.32409e-24
1.35118e-22
-2.90345e-22
2.19225e-27
-2.19503e-27
-7.97676e-27
7.9626e-27
-4.88218e-22
-4.83244e-22
-4.53623e-22
-4.37063e-22
-8.10873e-22
7.67123e-22
-7.17321e-22
3.47426e-22
-3.25061e-22
0
0
-1.53593e-23
2.50697e-22
0
0
3.76987e-22
-3.29461e-22
-3.48057e-22
1.8574e-23
-3.58868e-23
2.70738e-22
-1.11311e-22
-5.32684e-23
-7.40392e-24
-1.67836e-22
-6.71483e-24
6.68284e-24
0
-1.54601e-22
1.60542e-22
4.51104e-23
2.2726e-23
3.27045e-24
5.38553e-23
5.51827e-23
2.47749e-23
3.60113e-24
5.87038e-23
3.93459e-24
-2.00307e-24
3.40252e-23
1.77269e-23
3.94165e-29
-1.23219e-24
1.87454e-24
-6.42749e-25
0
-1.82611e-25
3.16609e-24
1.24416e-23
0
-1.3501e-23
1.79059e-24
-3.10147e-23
3.86635e-24
-7.8834e-24
6.94448e-23
-1.3134e-22
-4.31882e-24
-6.3482e-23
-1.87989e-23
7.74118e-23
1.70324e-22
8.27621e-23
1.70626e-22
-2.22478e-23
-3.39437e-22
1.86044e-22
-1.91203e-22
-1.96373e-22
0
0
0
0
0
-5.11934e-22
5.76815e-23
0
9.69931e-22
-4.94862e-22
-1.45016e-21
-3.16923e-23
-3.25597e-23
-3.33264e-23
-1.01254e-21
-3.41615e-23
0
1.11253e-21
5.74544e-22
0
-5.81212e-22
5.82244e-22
1.14515e-21
-5.78354e-22
2.93139e-22
-2.80056e-22
1.06703e-24
0
3.78654e-24
4.70661e-22
4.54717e-22
-5.52299e-26
-8.14701e-22
2.31659e-21
-7.28909e-22
6.86308e-22
-6.39066e-22
5.95974e-22
0
-1.56046e-23
9.71358e-22
0
-2.48544e-23
4.76414e-23
-3.76024e-22
3.282e-22
-1.48344e-26
0
0
-5.0289e-22
1.4537e-23
-1.44328e-23
1.32815e-23
1.03494e-22
-1.89731e-23
9.81828e-26
1.98969e-22
1.96815e-22
2.97903e-26
-5.93757e-24
0
0
4.97452e-23
-5.09479e-23
-5.23908e-23
0
-1.08304e-22
-3.55778e-24
-6.02818e-23
-3.13676e-23
0
1.92147e-23
3.33746e-23
1.97347e-23
-2.05448e-23
0
6.58818e-25
-1.02932e-23
-1.21659e-23
-2.38912e-23
0
0
5.38664e-23
1.08403e-22
1.19849e-22
-6.03376e-23
1.17174e-22
-1.21669e-22
0
0
3.05221e-22
-1.66494e-22
0
-1.99833e-23
3.45244e-22
3.34898e-22
0
7.08821e-22
4.60142e-23
-9.35225e-23
4.75356e-23
0
0
7.75743e-22
-8.11231e-25
-7.59369e-22
-5.51062e-23
-9.07531e-22
-9.2711e-22
9.46455e-22
0
0
0
1.0188e-21
2.06946e-21
0
-1.06252e-21
4.18711e-24
2.16151e-21
0
0
-2.18655e-21
5.44409e-22
-1.0796e-21
2.66041e-22
-1.01981e-24
0
4.72065e-22
0
0
8.28074e-22
2.35217e-21
-1.48196e-21
-1.38696e-21
0
0
-1.7179e-23
3.29144e-23
-9.92702e-22
-9.05354e-22
0
2.34956e-23
-2.32294e-23
7.07053e-22
-6.96446e-22
9.00997e-22
3.26545e-23
-1.7043e-23
2.3563e-22
-1.43054e-23
-1.30064e-23
4.47826e-25
2.07243e-22
1.76994e-22
1.95573e-22
-1.80633e-22
-8.93223e-23
-8.89478e-23
-1.72723e-22
-5.58525e-24
0
3.68668e-27
0
0
-1.00965e-22
5.22268e-23
-1.08316e-22
2.15771e-27
0
1.94775e-24
-1.94574e-24
-3.31719e-23
-1.73082e-23
3.61262e-23
-9.42502e-24
-6.14682e-25
1.02585e-23
-1.36475e-24
2.22358e-23
1.42255e-24
0
-1.50802e-22
-1.04504e-22
-2.10166e-22
-6.91767e-24
2.3363e-22
1.13374e-22
-2.42983e-22
-2.59386e-22
-2.68207e-22
0
1.81251e-23
-3.68853e-23
-8.74648e-22
6.07465e-22
4.08034e-23
-1.36899e-21
6.82715e-22
0
0
0
0
-2.33462e-21
1.0044e-22
7.15571e-22
-1.56734e-21
-2.13847e-22
2.67806e-21
1.11692e-22
-5.67674e-23
-5.83783e-23
5.90919e-23
-3.02398e-23
-3.86627e-21
1.96251e-21
-1.57756e-23
1.59803e-23
-2.06368e-21
0
1.62241e-23
-1.04519e-21
2.06695e-21
1.03354e-21
5.09606e-22
0
-2.32933e-22
4.52452e-22
8.70484e-22
1.66669e-21
1.21206e-23
-3.01078e-21
5.38736e-24
2.65079e-21
2.48134e-21
1.76004e-23
-1.73622e-23
2.00469e-21
9.57507e-22
-1.72422e-24
-1.6162e-24
-7.61039e-22
4.13111e-23
-1.30534e-21
5.86649e-22
-5.78682e-22
6.37014e-23
-1.63808e-24
-2.87207e-23
2.58323e-23
-4.38878e-22
2.39757e-23
-2.07067e-22
1.89442e-22
-1.62824e-22
-3.62248e-22
1.05638e-23
1.67768e-22
1.62819e-22
5.26426e-24
-5.4322e-24
-8.2174e-23
-1.79348e-22
9.21758e-23
9.50752e-23
0
1.05225e-22
4.97229e-23
3.51845e-24
-5.34696e-24
-8.03505e-26
-8.42934e-26
1.9927e-24
-1.69978e-23
-8.8668e-24
0
1.93027e-23
0
2.67545e-24
-2.67723e-24
0
9.46215e-23
0
3.06466e-22
0
-2.0599e-22
2.13933e-22
1.50239e-23
2.29287e-22
0
0
1.70798e-23
-5.73406e-22
5.37361e-22
-5.54666e-22
3.84895e-23
5.87838e-22
-6.4447e-22
-4.18225e-23
8.5075e-23
-4.32817e-23
0
1.47216e-21
9.50421e-23
-9.59652e-23
1.48469e-21
1.00712e-22
-1.76321e-21
1.0544e-22
5.4362e-23
-3.53648e-21
-3.71964e-21
5.72611e-23
1.86934e-21
-5.69715e-21
-3.8523e-21
-3.89206e-21
-7.70803e-24
0
0
1.99944e-21
-7.66336e-24
1.98767e-21
-4.88211e-22
9.23503e-28
-7.29484e-27
-1.73814e-21
-8.18039e-22
-3.20596e-21
3.03557e-21
1.43482e-21
0
-1.26826e-21
-2.37291e-21
-2.19732e-21
-4.78253e-23
3.12487e-23
1.77309e-21
-1.61654e-21
2.14344e-23
6.56684e-22
0
1.84167e-21
-3.60357e-23
0
0
0
0
4.01226e-22
3.80695e-22
-3.85899e-22
3.71543e-22
-3.37997e-22
0
3.23277e-22
-3.09582e-22
-1.68969e-22
1.00209e-23
-1.70602e-22
0
-5.25617e-24
1.75129e-22
-8.73062e-23
-1.80056e-22
0
0
0
-1.07665e-22
3.32637e-24
0
-5.90867e-23
1.96945e-24
-3.51675e-23
1.78174e-23
-1.37426e-24
-1.91597e-23
2.38192e-24
-7.80881e-23
-2.5341e-24
-8.60896e-23
0
5.92714e-24
-1.99383e-22
2.13536e-22
-1.27959e-23
-2.15882e-22
2.37786e-22
-1.42379e-23
0
0
5.43125e-22
4.61305e-22
-1.05375e-21
-1.12064e-21
3.64937e-23
1.11399e-21
-1.18472e-21
-1.33645e-21
7.99585e-23
8.37006e-23
-1.44703e-21
8.80973e-23
2.77945e-21
0
-3.01257e-21
3.08461e-21
-3.1567e-21
1.01361e-22
-1.02627e-22
1.8809e-25
-5.37103e-23
1.09453e-22
-1.11409e-22
5.6633e-23
3.67857e-21
7.23566e-24
3.75846e-21
-1.47753e-23
1.49777e-23
1.48547e-23
-1.49166e-23
-1.89327e-21
-3.6913e-24
0
2.14059e-22
-1.47504e-25
-1.6123e-21
1.55427e-21
-2.89745e-21
-2.7711e-21
-2.58886e-21
-4.62048e-24
4.55418e-24
2.11697e-21
1.96982e-21
-1.82785e-21
-1.668e-21
-7.31326e-23
9.06865e-23
-1.34325e-21
-4.00554e-23
-1.14804e-21
3.22773e-23
-3.19196e-23
0
0
0
3.58956e-22
2.31771e-23
-3.46265e-22
-3.32638e-22
3.41743e-22
2.93758e-22
0
2.94593e-22
-3.02646e-22
3.12583e-22
-1.52758e-22
3.09734e-22
1.57801e-22
5.12585e-24
-5.11038e-24
3.72479e-26
-1.77031e-22
-1.8353e-22
-9.53178e-23
9.91892e-23
-9.99844e-23
-1.07525e-22
1.10679e-22
-5.85136e-23
2.96873e-23
-9.76218e-25
7.74866e-25
-1.7096e-23
-3.62045e-23
1.91758e-26
0
2.50691e-22
-1.8087e-22
5.42922e-24
0
-1.90881e-22
0
0
0
0
2.88674e-23
9.11681e-22
-1.4574e-21
0
1.0345e-21
2.13257e-21
-1.06365e-21
-1.16595e-21
2.32746e-21
1.19692e-21
7.76263e-23
1.45175e-24
-1.37827e-21
0
-5.46731e-21
0
2.87238e-21
-2.44088e-25
2.34876e-25
0
3.14837e-21
3.31708e-21
3.18025e-21
5.2395e-23
-3.46088e-21
3.43776e-21
2.74687e-23
7.12643e-21
-3.60638e-21
3.55952e-24
0
3.65319e-21
1.84527e-21
0
0
0
1.02666e-22
7.97935e-22
3.08048e-21
1.08157e-23
-2.22191e-23
2.63354e-21
2.4839e-21
-2.31904e-25
-4.36038e-24
2.04248e-21
-1.89986e-21
0
-1.64519e-21
1.5232e-21
0
2.56282e-21
1.18519e-21
-1.13059e-21
1.01957e-21
3.04975e-23
0
-2.50864e-23
-7.48902e-22
-7.30049e-22
6.92566e-22
6.61013e-22
0
-3.07126e-22
-2.99197e-22
0
0
5.19827e-26
-5.78265e-22
5.82816e-22
-2.9541e-22
1.59943e-22
-9.49934e-24
5.02997e-24
3.16184e-22
1.79359e-22
3.44559e-22
-9.0819e-23
-9.45121e-23
9.53252e-23
3.17513e-24
-5.52437e-23
5.75676e-23
0
3.0892e-23
-4.85462e-25
1.65515e-23
-3.22921e-23
-2.18135e-24
-1.49823e-22
-1.56008e-22
1.57126e-22
5.17496e-24
0
-3.63828e-22
3.77419e-22
1.24295e-23
-1.24634e-23
8.12339e-22
5.42406e-23
-9.24775e-22
1.88253e-21
-5.97733e-23
3.04342e-23
-2.06641e-21
1.08035e-21
-6.81872e-23
-9.71717e-22
-2.42695e-21
1.46757e-22
-7.47077e-23
2.55681e-21
-7.88476e-23
2.6107e-21
0
0
8.81015e-23
2.8779e-21
-9.14909e-23
-3.00919e-21
0
-9.83446e-23
3.35048e-21
6.46886e-21
0
0
-3.4108e-21
-3.44984e-21
1.35444e-23
-1.37397e-23
-3.54178e-21
-3.4822e-21
-6.74446e-24
6.78707e-24
4.11523e-25
-9.84722e-23
0
1.47283e-21
-2.79446e-21
-2.6751e-21
-2.01654e-23
0
4.24038e-24
-4.17791e-24
-1.91185e-21
-3.64083e-21
3.35108e-21
1.50442e-21
4.63296e-23
2.65382e-21
-1.2263e-21
1.13437e-21
-1.05016e-21
-9.73498e-22
0
0
-7.64262e-22
7.38856e-22
-4.37162e-23
-1.30333e-21
0
6.07015e-22
-1.81725e-23
-5.36045e-22
-1.76471e-23
-5.54343e-22
2.75857e-22
5.52496e-22
8.67933e-24
1.77064e-25
-2.96418e-22
0
4.80434e-24
-3.16533e-22
0
-7.15823e-26
1.68055e-22
9.00587e-23
5.75527e-24
4.08812e-26
0
-1.70351e-24
5.82394e-23
-2.99361e-23
0
0
1.31827e-22
6.87061e-23
4.7476e-26
-1.4895e-22
4.93564e-24
3.17255e-22
0
6.9511e-22
-3.60596e-22
0
2.45853e-23
-2.48411e-23
0
0
2.78776e-23
-9.7093e-22
5.89198e-23
1.00358e-21
-6.18512e-23
2.06246e-21
0
2.18387e-21
0
0
2.36994e-21
0
-7.86065e-23
2.63972e-21
0
2.68792e-21
0
-5.71989e-21
8.95569e-23
-5.9764e-21
6.1012e-21
-9.19174e-21
-3.07228e-21
6.34955e-21
-5.03554e-23
-6.54752e-21
3.31141e-21
6.53366e-24
0
-2.61516e-23
-3.3401e-21
-3.34503e-21
1.65024e-21
4.88895e-28
-1.42267e-27
1.42108e-27
-5.65073e-21
-9.60866e-25
2.56439e-21
0
-4.55889e-21
4.27296e-21
0
2.82646e-23
3.43275e-21
1.07251e-24
0
0
-2.54178e-21
0
-4.34501e-21
2.01114e-21
-5.6524e-23
5.58871e-23
0
7.54826e-22
7.08537e-22
-6.68405e-22
1.26794e-21
0
-5.81096e-22
0
5.47376e-22
5.20058e-22
5.63772e-22
-2.4763e-23
-2.56101e-22
-2.6638e-22
-2.6984e-22
8.70893e-24
2.72659e-22
2.89085e-22
-1.48957e-22
0
-1.59847e-22
5.29597e-24
-1.07989e-23
1.8529e-22
9.67478e-23
-2.99074e-24
-1.00359e-22
-5.48697e-23
2.73248e-23
-1.91808e-26
4.62594e-25
-6.50628e-23
2.01207e-24
1.41259e-22
1.38144e-22
-9.44162e-24
-3.08632e-22
-3.10345e-22
-3.32502e-22
0
0
7.1716e-22
-7.18997e-22
-2.44177e-23
-8.1991e-22
2.66658e-23
2.62402e-21
2.92745e-23
-5.7414e-23
1.91672e-21
-1.91179e-21
1.96886e-21
-6.59761e-23
6.65012e-23
0
-2.26918e-21
-1.46772e-22
-2.29182e-24
-2.29968e-21
0
-4.98678e-21
5.10713e-21
1.07861e-20
-5.5148e-21
5.54738e-21
8.96297e-23
5.87036e-21
0
-6.03644e-21
6.13102e-21
-1.28223e-23
1.85665e-23
-1.87075e-23
-6.45282e-21
3.25798e-21
3.2294e-21
3.20903e-21
-3.16661e-21
-3.79407e-25
-9.07165e-23
0
2.72218e-21
5.17564e-21
-4.94308e-21
8.08325e-25
8.76297e-21
-4.09702e-21
0
0
-3.32002e-21
1.07321e-24
0
3.99122e-23
2.39778e-21
6.81547e-23
2.01491e-21
0
-1.7872e-21
0
0
4.40385e-23
-7.64085e-22
6.42429e-22
-5.68664e-22
0
1.71698e-23
-5.71792e-22
1.65419e-23
-5.14301e-22
5.07836e-22
-1.58444e-23
2.37211e-23
-7.91991e-24
8.33153e-24
2.55036e-22
-2.69503e-22
-1.79172e-25
2.85523e-22
0
0
5.06995e-24
-5.06136e-24
-1.72207e-22
0
9.05787e-23
1.00675e-22
1.62748e-24
-2.8224e-23
1.73363e-24
0
5.84158e-23
-2.08547e-24
1.35036e-22
-2.728e-22
0
0
3.06681e-22
6.26472e-22
-1.08487e-23
-6.63649e-22
-7.09508e-22
0
-7.59623e-22
7.60556e-22
8.10364e-22
-1.64952e-21
5.46976e-23
-5.49974e-23
-3.67257e-21
0
-1.9467e-21
-6.32114e-23
2.18779e-21
-6.5521e-23
4.34838e-21
0
1.44258e-22
-2.9364e-22
1.49486e-22
-4.77873e-21
-5.20846e-21
-5.33072e-21
5.53255e-21
-8.40508e-23
-1.11177e-20
1.75787e-22
5.64442e-21
0
-5.92435e-21
1.20111e-20
0
-6.136e-21
6.17742e-21
-3.10128e-21
1.20117e-23
-1.21305e-23
1.51953e-21
0
2.61247e-22
-5.19515e-24
-2.59935e-21
-2.50777e-21
-1.43412e-24
1.78107e-23
-8.39263e-21
0
-1.39687e-23
1.37636e-23
3.18415e-21
-2.95365e-21
4.14234e-23
-4.08237e-23
-2.33701e-21
6.53618e-23
-6.45224e-23
0
1.66197e-21
5.13646e-23
1.48355e-21
4.22267e-23
-4.18064e-23
0
0
0
1.06667e-21
5.15988e-22
0
1.53509e-23
-5.02196e-22
0
0
0
7.50492e-22
-2.60112e-22
0
-2.56889e-22
-2.90458e-22
8.68045e-24
-2.93023e-22
-3.04349e-22
5.05535e-24
2.18977e-25
-5.2606e-24
-1.82208e-22
9.78972e-23
-1.49352e-24
5.09402e-23
1.66014e-24
-2.94937e-23
-5.60761e-23
0
-2.51152e-22
2.53193e-22
-3.22658e-25
8.67588e-24
9.3495e-24
-1.22975e-21
-6.32961e-22
1.31265e-21
0
-2.23374e-23
4.56946e-23
-4.70483e-23
-1.53164e-21
0
-5.24359e-23
5.27244e-23
1.70496e-21
5.60155e-23
0
-3.84001e-21
-2.09922e-21
-4.06105e-21
-4.04112e-21
4.28164e-21
0
-1.41809e-22
-1.92012e-24
4.87849e-21
4.84384e-21
4.80032e-21
1.57633e-22
0
-8.30861e-23
8.40954e-23
-5.54221e-21
5.63927e-21
-5.68369e-21
-1.15224e-20
0
-1.13645e-24
5.95268e-21
-4.64833e-23
2.34064e-23
0
3.44451e-28
-3.44942e-28
-1.6722e-22
2.60287e-21
2.51969e-21
-1.90139e-23
4.53748e-21
-1.63576e-23
4.04389e-21
3.7759e-21
-3.52862e-21
0
-3.05767e-21
0
2.58584e-21
2.50346e-21
-3.62203e-23
0
0
0
1.64419e-21
0
-1.46685e-21
4.28069e-23
1.2488e-21
0
0
-3.2768e-23
-1.99805e-21
-1.5663e-23
1.49562e-23
-4.87079e-22
-1.4586e-23
-4.49506e-22
0
4.68181e-22
-4.74891e-22
0
7.85102e-24
-7.82614e-24
8.57572e-24
-1.69567e-23
8.85564e-24
2.8732e-22
4.64831e-24
-1.63103e-22
1.69812e-22
-8.31279e-23
-9.53452e-23
2.86372e-24
-4.88681e-23
-3.18696e-24
2.4899e-23
1.69757e-24
-1.11873e-22
1.20591e-22
-2.54503e-22
0
0
0
1.17036e-21
6.07236e-22
-1.27891e-21
2.00527e-23
-1.35007e-21
6.7639e-22
2.2238e-23
-1.49181e-21
4.87772e-23
-1.63821e-21
-1.63868e-21
1.68872e-21
0
5.65474e-23
3.62768e-21
0
3.77188e-21
2.50034e-22
-4.23611e-21
1.32747e-22
-4.59406e-21
-1.84422e-24
1.40968e-22
-1.46121e-22
-1.52769e-24
1.51228e-22
7.79135e-23
4.99582e-21
8.10773e-23
5.27765e-21
-1.08226e-20
1.09083e-20
-9.93518e-25
0
5.65027e-21
-5.71358e-21
-5.69621e-21
5.71793e-21
2.84172e-21
2.80356e-21
6.62587e-28
-1.60721e-22
-4.99979e-21
4.80688e-21
-4.57746e-21
4.36057e-21
-7.1504e-25
-2.28466e-23
-7.24311e-21
-3.39038e-21
0
2.93487e-21
0
2.48356e-21
-2.36285e-21
4.39212e-24
-3.91444e-21
1.89464e-21
-5.49889e-23
-1.57834e-21
4.44911e-23
-4.40155e-23
-1.238e-21
-1.27405e-21
3.62153e-23
1.07138e-21
0
8.1054e-25
1.46843e-23
-2.35852e-25
1.35897e-21
4.1933e-22
9.18287e-22
-1.3887e-23
-4.49437e-22
0
0
0
7.74856e-24
2.51782e-22
-7.97974e-24
2.69613e-22
0
0
1.56557e-22
-3.15974e-22
-2.27749e-24
-2.63184e-24
0
-7.48187e-25
3.57832e-25
-4.89776e-23
-1.62851e-24
1.10924e-22
0
2.48272e-22
-7.67368e-24
-8.28392e-24
2.55041e-23
-5.78851e-22
-5.8247e-22
1.22723e-21
1.23214e-21
1.29598e-21
0
1.38579e-21
-4.50225e-23
9.23934e-23
1.47854e-21
2.947e-25
-1.62119e-21
0
-3.43725e-21
1.1164e-22
2.20885e-24
3.62273e-21
0
0
0
1.30879e-22
1.77274e-24
-1.35319e-22
-4.46099e-21
-4.42044e-21
-1.4515e-22
-9.53927e-21
7.63263e-23
-7.74545e-23
-5.06558e-21
-5.15593e-21
-5.23579e-21
5.3181e-21
-5.38294e-21
-5.40583e-21
-5.48912e-21
5.49196e-21
-1.09651e-20
2.71021e-21
1.01027e-24
0
1.54357e-22
2.40173e-21
-4.61759e-21
8.83093e-21
-4.18916e-21
0
-7.08577e-24
-3.48571e-21
6.5138e-21
0
0
0
-4.84112e-21
0
-4.07263e-21
3.70074e-21
-1.70876e-21
0
3.07611e-21
-1.41033e-21
-1.35356e-21
1.2638e-21
-3.69512e-23
3.31789e-23
-1.03044e-21
-1.09716e-24
-2.89938e-23
0
1.37643e-23
-8.8365e-22
-1.28796e-21
-8.54229e-22
-4.27406e-22
0
-1.38012e-23
4.58309e-22
4.47737e-22
7.19983e-24
-4.74366e-22
-7.65545e-24
8.24424e-24
-2.85205e-22
8.55449e-24
-2.90868e-22
1.51766e-22
1.42887e-25
1.65063e-22
0
0
0
4.89754e-23
-1.02076e-22
3.39429e-24
-3.39681e-24
7.35699e-24
-7.36581e-24
0
0
0
-1.75489e-23
-5.62182e-22
-1.22092e-21
1.26303e-21
0
-1.33095e-21
2.74985e-21
0
0
1.51066e-21
-4.92155e-23
-3.15702e-21
4.78526e-25
0
1.10208e-22
-2.24765e-22
1.14271e-22
0
0
3.98703e-21
0
0
-1.34586e-22
1.36223e-22
8.96234e-21
-5.82663e-25
0
-9.62241e-21
7.58612e-23
9.90038e-21
3.92663e-23
-4.97955e-23
5.16899e-21
1.5618e-20
5.27226e-21
5.27954e-21
5.27913e-21
-5.24286e-21
-4.00529e-24
1.93911e-26
1.48467e-22
0
0
-8.49183e-21
0
-1.45154e-23
1.42899e-23
6.69931e-21
-6.26403e-21
0
0
0
0
0
-5.44686e-25
3.6698e-21
-3.34066e-21
-3.19014e-21
-2.91128e-21
4.05628e-21
-1.25861e-21
0
3.3706e-23
-3.3383e-23
-9.87146e-22
0
9.04717e-22
8.7348e-22
-8.50355e-22
0
1.15504e-24
1.22931e-21
4.1069e-22
0
4.18731e-22
-4.27165e-22
-4.23292e-22
-1.38181e-23
4.55805e-22
-2.78873e-25
2.63494e-22
2.58225e-22
-3.92994e-24
2.75202e-22
0
2.57869e-24
-1.61021e-22
0
0
-3.59598e-25
-4.81274e-23
9.95778e-23
0
-6.78823e-24
-2.21917e-22
7.07327e-24
0
0
0
5.37283e-22
0
1.11731e-21
-1.15845e-21
-1.2362e-21
0
4.1494e-23
-4.20431e-23
4.45379e-23
-9.06892e-23
3.13167e-21
2.67366e-24
6.24557e-21
1.03018e-22
-1.03852e-22
-3.45042e-21
1.11731e-22
1.86831e-24
-1.15821e-22
-7.66159e-21
0
1.26398e-22
-1.27853e-22
-1.32185e-22
-8.47492e-21
8.79823e-21
0
1.83435e-20
7.31239e-23
-9.58811e-21
-9.66499e-21
-9.79847e-21
0
-9.99712e-21
-1.97989e-23
-5.03445e-21
-3.99292e-23
-9.76337e-24
-4.96953e-21
-5.59282e-26
-1.42694e-22
2.22211e-21
0
4.08336e-21
7.75441e-21
0
-6.87573e-21
6.43994e-21
6.03582e-21
2.00335e-23
-4.19359e-23
0
-6.77131e-23
-4.06686e-21
3.87486e-21
-3.63668e-21
6.62073e-21
-4.78945e-23
8.4746e-23
-5.20145e-21
2.34316e-21
-2.26146e-21
-3.23749e-23
6.26605e-23
9.18698e-22
0
2.67772e-23
-8.66288e-22
8.42837e-22
-2.44281e-25
7.54562e-22
-7.75163e-22
7.87165e-22
-7.93119e-22
-8.04392e-22
0
-4.18986e-22
0
4.43985e-22
-4.59188e-22
-2.45964e-22
7.58102e-24
0
-2.7231e-22
4.27729e-24
1.45941e-22
-2.43133e-24
2.43e-24
0
0
3.87137e-26
3.00446e-24
-3.00604e-24
1.97956e-22
2.19587e-22
-7.05896e-24
-4.53736e-22
4.78858e-22
-4.97266e-22
1.64056e-23
5.55004e-25
-1.12632e-21
0
1.15066e-21
3.78323e-23
-2.53866e-21
-2.62098e-21
0
0
-2.78436e-21
2.87014e-21
-9.67429e-23
9.70142e-23
0
-1.04585e-22
3.5133e-21
6.99892e-21
0
2.32088e-22
-4.71617e-22
-7.48918e-21
0
-7.96441e-21
-8.402e-21
1.32579e-22
-1.34473e-22
-8.74492e-21
-7.00462e-23
9.14232e-21
1.85774e-20
9.4339e-21
-9.36116e-24
-2.81668e-23
1.90373e-23
-9.76388e-21
0
4.85772e-21
2.39452e-21
3.47211e-26
0
-4.28381e-21
-4.0903e-21
3.91794e-21
3.43674e-23
-7.06734e-21
6.61017e-21
-6.1906e-21
-5.80984e-21
2.16693e-23
0
0
4.36637e-21
3.90927e-21
0
5.12725e-23
-6.31634e-21
2.89996e-21
2.7686e-21
2.41723e-21
0
4.34785e-21
3.11047e-23
-1.41512e-24
-2.91215e-23
0
8.07389e-22
2.55204e-23
-2.43519e-23
7.92562e-22
0
0
-7.68918e-22
1.53592e-21
3.86479e-22
3.93001e-22
4.02936e-22
1.31495e-23
-4.46875e-22
8.89251e-22
7.29457e-24
2.30175e-22
-7.89414e-24
2.61524e-22
2.72511e-22
0
0
1.21889e-24
-1.21848e-24
3.26073e-24
4.41186e-23
-1.3849e-24
1.88576e-22
-1.96639e-22
0
-4.39414e-22
4.56733e-22
-2.73923e-25
-4.77681e-22
-9.91954e-22
0
1.06588e-21
-1.10369e-21
1.10579e-21
1.21723e-21
1.25922e-21
2.48179e-21
0
2.59702e-21
8.5357e-23
0
-2.8393e-21
1.93372e-24
-9.59972e-23
-6.37868e-21
-3.27751e-21
-6.51935e-21
-2.14145e-22
2.41503e-25
0
7.4319e-21
-2.38957e-22
2.41357e-22
7.95305e-21
0
-8.43371e-21
1.32043e-22
-6.75767e-23
1.37313e-22
-9.03496e-21
9.09207e-21
0
0
3.62997e-23
-7.78065e-23
1.87489e-23
-4.64563e-21
-9.09355e-24
0
-1.32298e-22
4.11694e-21
3.95921e-21
3.82062e-21
-4.99969e-23
2.11395e-23
0
0
1.11145e-20
2.08527e-23
3.65688e-23
-4.50837e-21
-4.19893e-21
-3.76103e-21
-5.33851e-23
1.51275e-22
2.82412e-21
2.7928e-21
-2.57962e-21
7.74558e-23
0
-4.17904e-21
-5.97836e-23
8.74541e-23
-2.79822e-23
2.56574e-23
-8.27022e-22
-7.97153e-22
2.37784e-23
-1.47706e-21
7.51383e-22
-2.26666e-23
-1.14179e-23
-7.32665e-22
-2.3309e-25
-3.66434e-22
1.22687e-23
3.97323e-22
4.48828e-25
-8.67352e-22
4.45785e-22
-4.56531e-22
2.37343e-22
0
-5.16086e-22
0
-1.40421e-22
-2.34268e-24
2.3419e-24
-2.49859e-24
0
0
-1.87209e-22
5.78809e-24
3.87111e-22
4.15977e-22
0
-4.42784e-22
5.46165e-25
9.24021e-22
1.01955e-21
-2.05049e-21
1.06186e-21
-1.09874e-21
1.13532e-21
0
-7.67672e-23
1.56338e-22
-5.23962e-21
0
-8.65606e-23
-1.90107e-24
2.99166e-21
0
6.13735e-21
-1.98759e-22
-6.47924e-21
6.85133e-21
7.02838e-21
-2.16673e-22
0
0
1.49633e-20
0
0
7.98492e-21
8.15217e-21
-8.31045e-21
0
0
-8.72619e-21
8.83654e-21
0
0
9.03931e-21
-9.05548e-21
0
-2.22042e-21
0
6.36228e-23
-1.98248e-21
0
-7.29541e-21
-6.89194e-21
6.49603e-21
0
-5.73595e-21
-1.01417e-24
-4.99737e-21
-3.52006e-23
3.24505e-23
0
3.73313e-21
-5.48601e-23
0
-8.76582e-23
-2.59509e-21
7.52868e-23
-7.44898e-23
-6.53009e-23
6.70927e-23
-5.7467e-23
5.69179e-23
2.5786e-23
-5.02153e-23
-1.51293e-21
7.44251e-22
0
7.10155e-22
-7.01293e-22
6.95826e-22
0
0
0
0
-3.70935e-22
-3.82042e-22
-4.05728e-22
4.13552e-22
-4.0938e-22
6.51068e-22
-2.28442e-22
0
2.44227e-22
-1.76401e-25
1.41442e-22
-2.15619e-24
7.35564e-23
0
4.00628e-23
0
-5.56176e-24
-1.76058e-22
-3.78628e-22
0
-1.30422e-23
8.77837e-22
8.71065e-22
0
-5.1207e-25
9.86578e-22
0
0
-8.00984e-25
7.15719e-23
-7.19078e-23
-7.61927e-23
2.48113e-21
1.59924e-22
-8.14394e-23
0
-2.79326e-21
0
0
0
6.42992e-21
-6.3933e-21
6.56101e-21
6.29957e-21
2.13615e-22
0
-7.19841e-21
-7.35998e-21
7.52204e-21
0
-7.71974e-21
7.87031e-21
6.36134e-23
-9.68498e-23
8.41775e-21
-8.49267e-21
8.39941e-24
0
0
8.71804e-21
4.32955e-21
2.14603e-21
0
6.1365e-23
7.34783e-24
-7.30825e-24
7.06752e-21
6.64883e-21
-6.29158e-21
0
5.53633e-21
-1.03372e-20
9.62296e-21
-3.38985e-23
-3.16468e-23
-3.83027e-21
-3.48366e-21
0
-9.12546e-23
-2.69713e-21
-7.80718e-23
1.49643e-22
-2.29095e-21
-2.0665e-21
1.93331e-21
5.52535e-23
-5.47261e-23
4.95695e-23
-4.914e-23
1.45765e-21
2.26288e-23
-1.38862e-21
0
0
-6.70041e-22
0
2.1285e-23
-2.11933e-23
6.9619e-22
3.45861e-22
-3.69977e-25
3.90244e-22
-3.90816e-22
4.11779e-22
-4.28466e-22
-7.00513e-24
6.9948e-24
-3.80826e-24
7.77883e-24
-3.97131e-24
-2.1656e-24
-6.92287e-23
1.15488e-24
-3.67056e-23
1.5832e-22
5.35021e-24
-1.79895e-22
1.16034e-23
-1.16174e-23
1.25492e-23
-1.65128e-21
0
8.82951e-22
-8.87157e-22
-9.78226e-22
0
-3.22704e-23
-2.07209e-21
0
0
-2.24379e-21
-7.37602e-23
-2.3856e-21
-5.15416e-21
5.22614e-21
-5.37822e-21
1.74546e-22
-1.76064e-22
-1.84216e-22
-3.09537e-24
3.84865e-22
-6.51054e-21
-6.46954e-21
6.83179e-21
2.40567e-24
2.21585e-24
-2.21302e-22
-1.44795e-20
7.39682e-21
7.5515e-21
1.20444e-22
7.6534e-21
-7.90041e-21
-1.6143e-20
7.95945e-24
-8.24006e-21
8.30586e-21
-8.39296e-21
0
-8.35969e-21
0
0
0
0
2.72628e-23
-6.83847e-21
-1.28696e-20
6.08443e-21
1.08497e-23
-1.06742e-23
-4.67744e-24
-4.63447e-21
8.61888e-21
3.93082e-21
3.75111e-21
-3.41063e-21
-6.29303e-21
2.90432e-21
2.76499e-21
-2.63704e-21
7.43223e-23
2.13764e-21
3.91823e-21
5.982e-23
5.31381e-23
-1.69295e-21
0
0
2.19141e-23
-1.39296e-21
1.33777e-21
0
0
0
0
-2.04504e-23
2.03622e-23
-6.70679e-22
-1.08803e-23
1.08453e-23
-3.63028e-22
3.88476e-22
-4.0241e-22
0
0
-7.02123e-24
2.36063e-22
0
0
-1.30317e-22
5.43683e-25
3.32857e-24
-7.59403e-23
7.11957e-24
2.06568e-25
3.36832e-22
-5.36874e-24
1.16188e-23
-2.37153e-23
8.01134e-22
-8.45002e-22
2.55544e-23
9.09666e-22
8.86159e-22
-3.00435e-23
3.01497e-23
0
-6.63509e-23
6.66628e-23
7.12698e-23
-7.10402e-23
2.29825e-21
-8.39517e-25
-5.0365e-21
5.26146e-21
0
0
-1.77467e-22
6.14363e-21
-1.83941e-22
1.91437e-22
-6.42526e-21
-1.27589e-20
-2.05061e-22
2.0741e-22
6.82104e-21
6.97093e-21
-7.12152e-21
-7.38451e-21
1.49466e-20
-7.54562e-21
7.66652e-21
2.3342e-20
-1.53968e-23
7.95777e-21
-1.60674e-20
1.62082e-20
-3.18639e-23
4.02153e-21
3.98464e-21
0
-1.42922e-23
3.55536e-21
6.8057e-24
6.55688e-21
1.24202e-20
0
-1.0464e-23
2.00696e-23
4.80386e-21
-1.79661e-23
-1.65477e-20
-3.74609e-24
-1.11266e-22
1.32914e-20
5.96347e-21
-2.79754e-21
-5.24419e-21
-2.31005e-21
-2.14638e-21
-2.12143e-21
-2.87062e-24
0
1.62393e-21
3.20918e-21
1.49354e-21
1.4666e-21
-1.40788e-21
1.3216e-21
1.282e-21
1.23687e-21
1.94795e-23
0
0
0
0
0
0
0
-1.01792e-23
1.10947e-23
0
0
-6.47793e-24
6.46837e-24
-2.27802e-22
7.03911e-24
0
1.25598e-22
0
-4.27885e-24
9.97946e-26
-1.49097e-22
0
0
-3.37208e-22
-1.11878e-23
1.12041e-23
2.41718e-23
1.55376e-21
-1.63792e-21
-8.4972e-22
0
0
-1.82714e-21
-6.01078e-23
0
0
4.30111e-21
-7.01746e-23
7.06002e-23
4.7121e-21
0
0
0
-1.66522e-22
1.68067e-22
-5.5732e-21
-5.71839e-21
5.86244e-21
-2.26707e-25
1.21013e-20
1.95338e-22
1.30611e-20
-4.10633e-22
2.08997e-22
0
0
5.47381e-24
-1.4492e-20
-1.47833e-20
-1.50402e-20
7.39042e-24
2.23484e-23
7.71311e-21
-7.76816e-21
7.8225e-21
-2.31012e-23
-3.84115e-21
0
1.37794e-23
-3.43618e-21
6.62462e-21
7.94159e-24
-5.99237e-21
0
0
0
0
3.27202e-23
7.97451e-21
7.42338e-21
-6.80996e-21
-6.38237e-21
0
-8.14746e-23
8.33238e-23
4.60542e-21
2.13369e-21
1.98122e-21
-1.84446e-21
0
-1.61522e-21
4.27026e-23
-4.98492e-23
-1.37199e-21
1.35621e-21
1.26565e-21
-1.256e-21
-1.24943e-21
1.87217e-23
0
0
0
0
0
-1.00537e-23
-6.40245e-22
3.36462e-22
3.47174e-22
1.15048e-23
-1.74651e-23
5.97294e-24
0
-2.11974e-22
0
0
1.9296e-24
-1.92896e-24
0
1.02777e-25
0
1.54314e-22
-3.16541e-22
1.07213e-23
-6.86629e-22
0
0
-7.84665e-22
8.13638e-22
2.60092e-23
-1.74941e-21
2.70305e-23
1.87725e-21
-5.7933e-23
6.16202e-23
-1.2552e-22
6.33472e-23
0
4.40852e-21
0
4.67719e-21
0
0
0
5.23258e-21
-5.37391e-21
1.12016e-20
-1.75156e-22
1.71882e-20
-5.74208e-21
0
-1.2393e-20
0
0
-1.33344e-20
1.36159e-20
-1.38799e-20
1.41297e-20
1.42462e-20
1.44397e-20
-1.46225e-20
1.47782e-20
2.93011e-23
0
-1.5068e-20
-2.95658e-23
0
0
-1.33261e-23
0
-6.39345e-21
8.28314e-24
-5.79673e-21
-2.08216e-23
2.04609e-23
9.57676e-21
8.93902e-21
-8.29436e-21
-3.11138e-23
4.72329e-24
6.61552e-21
0
-5.54532e-21
5.188e-21
4.64754e-21
4.62453e-24
4.10979e-21
-3.69106e-21
-3.36017e-24
-5.33536e-23
4.73313e-23
-1.46622e-21
-5.9847e-24
-4.20242e-23
3.89461e-23
-1.26058e-21
3.68263e-23
-3.65843e-23
0
-1.13913e-21
1.79677e-23
-3.60392e-23
3.65292e-23
-6.12138e-22
6.08028e-22
2.09171e-24
0
-6.68821e-22
0
-1.15144e-23
1.14945e-23
0
1.97966e-22
6.52031e-24
0
0
-9.70197e-25
9.70082e-25
6.83903e-23
-2.11489e-24
1.43866e-22
3.84491e-25
3.13324e-22
6.52394e-22
2.16017e-23
-2.16385e-23
-7.09138e-22
-2.33612e-23
-1.55264e-21
1.61137e-21
0
1.80929e-21
-1.86977e-21
-5.94249e-23
-1.87695e-21
1.99854e-21
0
-4.25301e-21
-1.38467e-22
-4.37278e-21
4.64355e-21
4.62614e-21
5.06374e-21
-4.88905e-21
5.02382e-21
-5.15189e-21
-5.79347e-21
-1.09965e-20
1.12533e-20
1.81599e-22
0
-1.20265e-20
-1.94248e-22
-4.43111e-24
-1.30255e-20
0
-1.35311e-20
5.36785e-23
-1.39755e-20
1.40909e-20
-1.42705e-20
-1.44334e-20
0
1.46107e-20
-2.85598e-23
3.5787e-21
0
1.28629e-23
3.22589e-21
-6.20255e-21
-1.18264e-20
5.59546e-21
1.05478e-20
9.88283e-21
-1.84787e-20
-8.62213e-21
8.03094e-21
0
-6.90805e-21
0
0
5.51273e-21
-5.01473e-21
-7.47824e-23
0
-5.73625e-24
-4.91051e-23
3.52176e-21
-2.86785e-24
-4.80574e-23
0
-4.40105e-24
0
0
0
1.10297e-21
6.99857e-23
-3.46008e-23
1.09949e-21
0
5.52408e-22
0
2.23646e-24
-5.86864e-22
2.1853e-24
6.20582e-22
3.32534e-22
-3.43576e-22
-3.46624e-22
3.61001e-22
0
0
0
3.42735e-24
-3.42546e-24
9.3473e-25
-9.34619e-25
0
0
-4.0487e-25
2.89923e-22
0
-6.28282e-22
-6.53767e-22
0
7.06952e-22
-1.46674e-21
1.5228e-21
-1.57758e-21
0
-1.6926e-21
1.75077e-21
-5.73364e-23
1.98605e-21
-7.77655e-21
0
-1.29761e-22
4.35875e-21
0
-8.82218e-21
-4.75338e-21
-1.49639e-22
1.50899e-22
-1.00086e-20
-1.02691e-20
1.05264e-20
0
-1.08583e-20
2.03397e-24
-1.79204e-22
1.17852e-20
1.20482e-20
1.24998e-20
-1.95838e-22
-1.27252e-20
-7.40182e-24
1.31685e-20
-1.34594e-20
-1.32756e-23
1.34999e-23
1.39274e-20
1.41091e-20
-7.09843e-21
0
-6.91415e-21