/*--------------------------------*- C++ -*----------------------------------*\
| =========                 |                                                 |
| \\      /  F ield         | OpenFOAM: The Open Source CFD Toolbox           |
|  \\    /   O peration     | Version:  2006                                  |
|   \\  /    A nd           | Website:  www.openfoam.com                      |
|    \\/     M anipulation  |                                                 |
\*---------------------------------------------------------------------------*/
FoamFile
{
    version     2.0;
    format      ascii;
    class       volTensorField;
    location    "20000";
    object      gradU;
}
// * * * * * * * * * * * * * * * * * * * * * * * * * * * * * * * * * * * * * //

dimensions      [0 0 -1 0 0 0 0];


internalField   nonuniform List<tensor> 
14751
(
(-0.000114917 -0.814822 0 -6.42322e-07 8.64391e-05 0 -5.89043e-30 -1.17218e-24 0)
(-8.69275e-05 -0.817874 0 -2.52024e-07 0.000105991 0 -8.26255e-24 9.46944e-21 0)
(-5.85161e-05 -0.821275 6.8827e-23 -7.63649e-07 2.2773e-05 -1.9085e-27 1.5502e-23 3.58283e-22 -3.00259e-44)
(-1.40868e-05 -0.821521 -1.35486e-22 -4.65557e-07 -2.01372e-05 -3.25659e-27 1.0832e-24 -4.42075e-22 -7.51696e-44)
(1.88692e-05 -0.821046 6.65989e-23 -6.07611e-07 -7.37529e-05 6.06226e-27 -1.50498e-23 -4.37067e-22 3.77013e-44)
(6.68677e-05 -0.818153 -2.19791e-24 -5.0676e-07 -0.000135744 -2.62659e-28 6.7478e-24 1.03089e-21 -4.78167e-50)
(0.000103509 -0.813476 2.19783e-24 -4.66653e-07 -0.000178259 2.6265e-28 2.76526e-24 3.06859e-20 4.78151e-50)
(0.00014078 -0.807286 -3.32857e-23 -4.51435e-07 -0.000227176 -9.4239e-27 5.40939e-25 -3.31938e-23 -1.4989e-45)
(0.000176696 -0.799318 -4.74578e-25 -3.55438e-07 -0.000266994 -8.19802e-29 -3.2034e-24 -2.78166e-20 1.07581e-46)
(0.000206465 -0.789996 -6.69818e-26 -2.89084e-07 -0.000301554 -1.33529e-29 -4.65117e-26 -4.29935e-22 4.12963e-49)
(0.000233512 -0.779417 -2.60825e-25 -2.17664e-07 -0.000330158 -6.16032e-29 -3.28291e-26 -2.53136e-20 -7.19644e-52)
(0.000255614 -0.767794 2.60831e-25 -1.53803e-07 -0.000353658 6.16046e-29 3.33128e-26 -1.11365e-24 7.19661e-52)
(0.000274056 -0.755279 -5.04513e-25 -7.898e-08 -0.000371366 -1.30688e-28 4.11833e-26 2.24982e-20 -2.54317e-51)
(0.000288289 -0.742106 5.04547e-25 -2.19026e-08 -0.000383131 1.30697e-28 -4.52954e-24 1.2791e-21 2.54334e-51)
(0.000298166 -0.728426 6.10457e-23 3.65236e-08 -0.000390444 3.27212e-26 1.35234e-25 -2.44756e-21 2.05118e-43)
(0.000304381 -0.714435 -4.75744e-25 8.51522e-08 -0.000391916 -1.27437e-28 6.29266e-24 7.7797e-23 6.14047e-47)
(0.000307286 -0.700284 -2.84021e-23 1.31911e-07 -0.000390891 -1.61287e-26 5.36979e-26 2.17344e-21 9.09481e-44)
(0.000306684 -0.686101 -9.21727e-25 1.78118e-07 -0.000384218 -2.40577e-28 -1.89351e-24 -1.06091e-21 6.49987e-47)
(0.000302745 -0.672076 4.55913e-25 2.10097e-07 -0.000375064 1.17409e-28 -7.16942e-26 -6.80786e-21 -1.9171e-48)
(0.000296652 -0.6583 -4.36535e-25 2.30171e-07 -0.000362443 -1.03171e-28 -1.38628e-25 -9.39954e-22 -4.68441e-48)
(0.000288754 -0.644891 3.38715e-24 2.37257e-07 -0.000349041 1.83588e-27 4.10826e-26 1.6354e-24 -7.23816e-48)
(0.000280545 -0.631884 -2.46435e-24 2.32731e-07 -0.00033433 -1.56768e-27 6.74742e-26 6.51854e-21 3.41474e-44)
(0.000271741 -0.619272 2.82549e-24 2.28212e-07 -0.000320564 1.59108e-27 3.25589e-26 -6.95128e-21 3.64083e-44)
(0.000261455 -0.607103 -2.77899e-24 2.20308e-07 -0.000304339 -1.52059e-27 2.87048e-25 7.39399e-21 3.87192e-44)
(0.000250615 -0.595451 -3.12696e-24 2.0187e-07 -0.000289021 -1.52036e-27 -2.36368e-25 -7.26302e-22 -3.7966e-45)
(0.000239525 -0.584294 2.66762e-24 1.89062e-07 -0.000273143 1.36371e-27 -1.58474e-25 2.369e-24 -1.0925e-47)
(0.000228024 -0.573675 0 1.7275e-07 -0.000257771 0 1.12578e-25 -2.33663e-30 0)
(0.000216435 -0.563583 0 1.5973e-07 -0.000242412 0 1.39673e-25 -5.17903e-21 0)
(0.000204779 -0.554036 -2.90194e-24 1.44617e-07 -0.000227505 -1.19163e-27 3.44685e-26 -3.17276e-22 -1.66183e-45)
(0.000193336 -0.545021 -3.57829e-25 1.314e-07 -0.000213124 -4.11768e-29 -2.43422e-25 3.17417e-22 -2.22539e-48)
(0.000181986 -0.536535 1.76296e-24 1.18988e-07 -0.000199207 5.62882e-28 -1.03435e-25 -3.13479e-22 8.23196e-46)
(0.000170893 -0.528569 1.38427e-24 1.07396e-07 -0.000185847 4.86716e-28 1.03355e-25 -5.19893e-25 1.36155e-48)
(0.000160055 -0.521109 0 9.70731e-08 -0.000173014 0 -1.57652e-27 -2.21456e-21 0)
(0.000149519 -0.514148 1.3465e-24 8.67389e-08 -0.000160755 4.21001e-28 -1.8296e-26 -2.40219e-21 6.29111e-45)
(0.000139235 -0.507661 1.65959e-25 7.71335e-08 -0.000149116 1.27121e-29 1.06959e-25 -1.62376e-22 -3.00061e-49)
(0.000129367 -0.501644 -3.29828e-25 7.01366e-08 -0.000137911 -2.42929e-29 2.88552e-27 -2.50531e-21 5.92588e-49)
(0.00011958 -0.49609 1.63866e-25 6.36856e-08 -0.000127134 1.15806e-29 -4.03823e-26 2.75535e-21 -2.92523e-49)
(0.000110299 -0.490972 0 5.84715e-08 -0.00011689 0 1.85592e-26 5.68182e-24 0)
(0.000101073 -0.486281 0 4.79193e-08 -0.000106901 0 2.57937e-28 -1.80561e-22 0)
(9.24201e-05 -0.482008 0 4.16496e-08 -9.78415e-05 0 -1.14307e-26 9.70985e-23 0)
(8.37097e-05 -0.478148 7.78419e-26 4.62048e-08 -8.86068e-05 3.71443e-30 -2.87199e-24 3.5806e-24 2.32874e-47)
(7.50068e-05 -0.474687 3.97033e-23 4.34187e-08 -7.93989e-05 6.65031e-27 1.09687e-26 -7.46095e-23 6.22936e-45)
(6.68207e-05 -0.47162 0 4.0447e-08 -7.06811e-05 0 2.08805e-24 -8.22112e-30 0)
(5.8411e-05 -0.468943 9.82493e-24 3.78601e-08 -6.19423e-05 1.29777e-27 -1.92529e-29 7.12903e-24 -1.49362e-46)
(5.046e-05 -0.466636 0 3.18846e-08 -5.36098e-05 0 7.871e-25 5.98616e-23 0)
(4.23116e-05 -0.464715 -1.88679e-26 3.1315e-08 -4.5377e-05 -5.5593e-31 -8.95105e-25 -1.03859e-21 -1.80127e-48)
(3.42592e-05 -0.463168 9.72281e-24 2.97177e-08 -3.70491e-05 7.76782e-28 -4.13941e-27 -4.70508e-22 9.85954e-45)
(2.62228e-05 -0.461999 4.68644e-27 2.83652e-08 -2.89976e-05 1.09675e-31 8.95308e-25 5.01212e-22 4.89807e-52)
(1.81659e-05 -0.461203 -9.12026e-30 2.77494e-08 -2.07526e-05 -1.40028e-32 -1.24704e-28 -1.0854e-27 6.29376e-53)
(1.00479e-05 -0.460785 4.66718e-27 2.61441e-08 -1.26538e-05 6.92818e-32 1.0607e-24 -2.81568e-26 -1.07017e-48)
(1.97086e-06 -0.460746 -9.66256e-24 2.67386e-08 -4.49523e-06 -9.43457e-29 1.00007e-27 1.61464e-22 3.38394e-45)
(-6.22853e-06 -0.461088 0 2.53841e-08 3.69525e-06 0 -1.0515e-24 -1.93634e-23 0)
(-1.43288e-05 -0.461804 -3.74522e-26 2.28574e-08 1.1805e-05 -3.57085e-31 -9.19788e-27 -8.37798e-23 2.52964e-54)
(-2.2576e-05 -0.462904 3.74526e-26 2.27513e-08 1.99101e-05 3.57089e-31 1.06528e-26 -3.64021e-24 -2.52966e-54)
(-3.08031e-05 -0.464388 -7.53355e-26 2.10513e-08 2.81161e-05 -3.60618e-31 -1.05769e-26 1.7875e-22 1.70105e-53)
(-3.90019e-05 -0.466253 7.53363e-26 1.98941e-08 3.60672e-05 3.60621e-31 -4.12104e-26 -9.13391e-23 -1.70107e-53)
(-4.72089e-05 -0.468499 7.60317e-26 1.85598e-08 4.42018e-05 5.03695e-32 -1.35007e-24 -5.69774e-25 1.12357e-47)
(-5.54589e-05 -0.471126 9.79464e-24 1.67303e-08 5.20798e-05 -1.09119e-27 -1.41991e-24 1.32402e-23 -2.88635e-46)
(-6.34787e-05 -0.474134 9.93369e-24 2.05412e-08 6.002e-05 -1.25749e-27 -4.64372e-24 1.31203e-23 -2.74887e-46)
(-7.17059e-05 -0.477516 4.01733e-23 1.83568e-08 6.80265e-05 -5.70175e-27 1.53965e-24 4.87032e-22 -4.07201e-44)
(-7.94281e-05 -0.481258 -3.11569e-25 1.73279e-08 7.55764e-05 1.86419e-30 5.96487e-24 1.71124e-23 -9.48223e-47)
(-8.74307e-05 -0.485372 1.56435e-25 1.308e-08 8.33736e-05 -1.07037e-30 1.30962e-23 1.32352e-23 -7.65885e-49)
(-9.4972e-05 -0.489832 -8.22601e-23 -2.71277e-09 9.03838e-05 1.51504e-26 -9.09692e-26 -8.09158e-21 -1.35602e-42)
(-0.000102276 -0.494642 3.20397e-25 -2.98704e-10 9.67511e-05 -2.44557e-30 -1.31505e-23 -7.73975e-21 -2.10627e-46)
(-0.000109851 -0.499798 -1.61028e-25 5.83755e-09 0.000103879 1.21933e-30 1.17002e-25 7.96172e-21 -8.42274e-49)
(-0.000116954 -0.505286 0 2.20389e-09 0.000110445 0 3.74378e-24 5.53019e-29 0)
(-0.000124219 -0.511094 -2.17495e-23 3.87697e-10 0.000117038 4.90689e-27 -1.18109e-25 -1.09395e-21 -4.57204e-44)
(-0.000131346 -0.517236 3.33392e-25 3.8794e-10 0.000123629 -2.69702e-30 -5.73351e-24 1.05944e-21 -1.18972e-46)
(-0.000138539 -0.523714 1.09725e-23 1.54157e-09 0.000130192 -2.72769e-27 -1.86528e-24 1.75302e-23 -3.6728e-46)
(-0.000145069 -0.530501 1.11147e-23 -3.54286e-09 0.000136266 -2.85493e-27 3.9585e-24 9.04112e-21 -1.89423e-43)
(-0.000150843 -0.537578 -1.12629e-23 -6.29555e-09 0.000141348 2.96142e-27 1.98178e-24 -1.83424e-23 -3.84297e-46)
(-0.000156155 -0.5449 0 -3.76417e-09 0.000146148 0 -2.02623e-24 -1.18902e-21 0)
(-0.000161216 -0.55246 0 -4.74394e-09 0.000150749 0 -2.63648e-25 -1.80084e-20 0)
(-0.000165922 -0.560236 7.34606e-25 5.77935e-10 0.000154926 -4.3973e-30 -1.91319e-24 -1.95597e-20 1.41825e-46)
(-0.000171245 -0.568226 1.11704e-23 8.15347e-09 0.000159984 -3.34748e-27 5.5431e-25 -2.48229e-21 5.18652e-44)
(-0.000175928 -0.57646 -7.57065e-25 1.28356e-09 0.000164883 5.03754e-30 1.92689e-24 7.41027e-24 1.84867e-47)
(-0.000180847 -0.584892 -1.17372e-26 1.7273e-08 0.000168831 1.1442e-30 -3.30011e-25 2.05308e-20 -1.79013e-47)
(-0.000185759 -0.593546 -1.20833e-26 2.3002e-08 0.000175169 1.53203e-30 -8.54806e-26 2.08233e-20 -2.97793e-50)
(-0.000191009 -0.602432 -1.24128e-26 5.71441e-08 0.000179377 3.73332e-30 -5.0219e-24 -2.65524e-21 -3.25111e-46)
(-0.000197089 -0.611549 2.64185e-23 7.13031e-08 0.000188694 -7.91819e-27 -4.79716e-24 2.68581e-21 -1.12218e-43)
(-0.000202545 -0.620938 2.60189e-23 7.96919e-08 0.000193633 -8.1137e-27 5.16111e-25 -2.15387e-20 9.02525e-43)
(-0.000208944 -0.630549 2.55892e-23 1.13113e-07 0.000203304 -8.49037e-27 4.48525e-24 5.20115e-23 -2.4922e-45)
(-0.000215319 -0.640485 8.32389e-25 1.23091e-07 0.000211154 -2.85519e-29 4.5405e-24 -2.76827e-21 3.12788e-46)
(-0.000222141 -0.650655 0 1.54006e-07 0.000221007 0 -4.81167e-24 5.53366e-21 0)
(-0.000229244 -0.661142 2.81412e-23 1.60327e-07 0.000231731 -9.73852e-27 -4.99616e-24 -2.73175e-21 1.14794e-43)
(-0.000235992 -0.671918 2.81626e-23 1.69134e-07 0.000241705 -1.01335e-26 1.02534e-23 -4.47124e-20 1.87323e-42)
(-0.00024264 -0.682958 -2.9063e-23 1.8482e-07 0.000252563 1.06169e-26 4.99513e-24 1.36399e-21 5.71602e-44)
(-0.000248645 -0.694265 0 1.76613e-07 0.000263156 0 -5.17407e-24 -1.40296e-21 0)
(-0.000253688 -0.705747 0 1.96035e-07 0.000271791 0 0 0 0)
(-0.000258231 -0.717421 0 1.84372e-07 0.00028286 0 -1.00368e-23 7.01285e-22 0)
(-0.000258382 -0.729155 6.11068e-23 1.35051e-07 0.000286691 -2.40261e-26 -7.86813e-26 -6.06761e-22 5.08496e-44)
(-0.000257754 -0.740723 2.47228e-25 1.71749e-07 0.000289666 -3.38387e-29 9.35283e-24 -4.46798e-20 1.25248e-47)
(-0.000254534 -0.752272 4.19571e-24 7.12759e-08 0.000295081 -1.58172e-27 2.32256e-25 -1.66828e-22 8.78836e-46)
(-0.000246468 -0.763364 -5.02679e-25 7.93511e-08 0.000283006 6.99814e-29 8.48091e-25 1.02649e-21 -1.75451e-47)
(-0.000239631 -0.774034 -5.18389e-25 4.26725e-08 0.000286583 7.39264e-29 -3.05186e-25 -6.74473e-22 4.15629e-51)
(-0.000221854 -0.784243 5.18384e-25 -1.19936e-07 0.000262578 -7.39258e-29 2.25529e-24 -2.09428e-20 -4.15626e-51)
(-0.000190273 -0.793118 -1.67497e-23 -3.93299e-07 0.000236444 4.96814e-27 1.14549e-25 -1.88654e-22 -3.93349e-45)
(-0.000186718 -0.800642 1.32925e-25 3.94218e-08 0.000196271 -1.43366e-29 -2.39381e-24 -1.62388e-22 -1.90447e-47)
(-0.00017424 -0.808812 0 -6.07829e-07 0.000227638 0 3.64603e-26 -4.28421e-33 0)
(-0.000259297 -0.770985 3.86211e-25 -4.3679e-06 0.000212164 -5.70863e-29 3.92599e-22 -1.11491e-24 -3.03337e-45)
(-0.000177871 -0.772254 -4.168e-21 -2.3799e-06 0.000202438 8.14661e-25 2.41795e-23 -8.18752e-21 2.32008e-42)
(-9.48195e-05 -0.77307 -1.64931e-22 -4.43257e-06 7.11813e-05 2.97251e-27 -4.26946e-22 7.35506e-22 6.76739e-45)
(2.37851e-05 -0.771746 2.30007e-22 -3.52071e-06 -2.23254e-05 2.06349e-27 -3.40871e-23 -9.22685e-22 9.23303e-44)
(0.000117438 -0.769385 1.31916e-22 -4.16671e-06 -0.000122735 2.20603e-26 8.8035e-23 -6.14e-20 -1.59809e-43)
(0.000238653 -0.76531 -3.91996e-22 -3.80926e-06 -0.000245049 -7.06026e-26 1.28515e-21 5.89529e-20 5.30026e-42)
(0.000339046 -0.759796 -1.61581e-20 -3.30903e-06 -0.000336793 -5.36752e-24 -3.98629e-23 -2.63341e-20 2.1797e-41)
(0.000437126 -0.753061 3.1649e-23 -3.21111e-06 -0.00043623 8.90624e-27 -2.45254e-21 1.18477e-22 1.30133e-45)
(0.000530824 -0.74503 1.57867e-20 -2.71197e-06 -0.000523847 8.20752e-24 -2.03486e-23 2.33228e-20 2.30929e-41)
(0.000609279 -0.735982 1.87863e-22 -2.31213e-06 -0.000600157 7.80429e-26 8.60625e-23 4.71344e-20 4.55331e-42)
(0.000679577 -0.726028 1.5498e-20 -1.92253e-06 -0.000666537 1.04158e-23 2.15319e-23 -2.5059e-20 5.19201e-40)
(0.000736666 -0.71535 0 -1.53492e-06 -0.000721644 0 2.02367e-21 1.36231e-21 0)
(0.000784157 -0.704084 -1.49523e-20 -1.11978e-06 -0.000766649 -1.18622e-23 5.99964e-23 -1.81996e-20 2.5209e-41)
(0.000820301 -0.692396 -6.8805e-22 -7.40057e-07 -0.000800481 -4.28211e-25 -1.05297e-21 1.14397e-22 -6.74372e-43)
(0.000845028 -0.680422 1.30295e-21 -3.66821e-07 -0.000824452 8.3002e-25 -4.47468e-23 -3.31538e-20 1.92729e-42)
(0.000860519 -0.668293 -1.18993e-23 -6.44192e-08 -0.00083767 2.54129e-27 1.90938e-22 -2.12729e-21 -2.84036e-42)
(0.000866579 -0.656136 -1.27286e-21 2.31004e-07 -0.000844191 -8.47695e-25 -4.88845e-23 1.55468e-22 1.99255e-42)
(0.000863532 -0.644046 6.40954e-22 5.26815e-07 -0.000839923 4.28483e-25 -3.84246e-22 -1.01615e-22 -6.7233e-43)
(0.000851629 -0.63216 5.98317e-21 7.45278e-07 -0.000829085 5.82579e-24 3.75683e-24 4.48576e-21 3.51826e-42)
(0.000833806 -0.620546 6.1245e-22 9.0489e-07 -0.00081117 4.09376e-25 2.92456e-22 1.55363e-21 4.89301e-42)
(0.000810686 -0.609304 -2.98323e-24 9.85401e-07 -0.000789824 -1.61464e-27 3.22855e-22 2.51384e-24 7.56527e-48)
(0.000786892 -0.598459 -6.1898e-21 1.00471e-06 -0.000766192 -5.6862e-24 -3.0089e-22 -3.6242e-21 1.12898e-41)
(0.000761605 -0.588 6.62716e-21 1.07386e-06 -0.000742834 5.84331e-24 3.87088e-23 3.27249e-21 1.48401e-41)
(0.000732938 -0.577947 -7.0562e-21 1.14863e-06 -0.000714301 -5.94397e-24 2.67213e-22 1.63434e-20 1.26787e-40)
(0.000702323 -0.568349 5.51813e-22 1.15327e-06 -0.00068538 3.35816e-25 -3.21711e-22 9.82958e-21 -4.1715e-42)
(0.000671036 -0.559197 -2.6614e-24 1.16885e-06 -0.000654678 -1.24414e-27 3.18852e-23 -1.17218e-21 1.07905e-47)
(0.000638657 -0.550513 0 1.16364e-06 -0.000623508 0 -2.2778e-22 1.04383e-20 0)
(0.00060596 -0.542292 5.52431e-21 1.15709e-06 -0.000591575 4.29802e-24 -1.46747e-23 3.89697e-21 3.13534e-42)
(0.000573011 -0.534541 2.5266e-22 1.13064e-06 -0.00055959 1.27084e-25 2.39908e-22 -5.94201e-22 2.79481e-45)
(0.000540486 -0.527253 -2.4964e-22 1.10153e-06 -0.000527898 -1.25796e-25 3.57404e-25 5.8965e-22 -1.35717e-45)
(0.000508234 -0.52042 2.4082e-22 1.07018e-06 -0.000496502 1.10085e-25 -1.45437e-23 8.69124e-21 9.57866e-44)
(0.000476567 -0.514036 -4.43193e-24 1.03522e-06 -0.000465646 -7.59868e-27 -8.29144e-23 -9.28727e-21 5.93519e-43)
(0.000445532 -0.50809 2.32239e-21 9.98109e-07 -0.000435408 1.46235e-24 -1.05192e-22 -5.7841e-21 1.99141e-41)
(0.000415421 -0.50257 2.41078e-21 9.56952e-07 -0.000405947 1.41261e-24 9.01816e-23 -3.09173e-21 1.34001e-41)
(0.000385871 -0.497465 1.15731e-22 9.21045e-07 -0.000377319 4.45751e-26 -4.90293e-24 -2.0427e-23 3.98058e-43)
(0.000357338 -0.492763 2.3568e-21 8.91463e-07 -0.000349327 1.21431e-24 1.28311e-22 1.70737e-21 1.19466e-42)
(0.000329163 -0.488458 -2.44325e-21 8.56087e-07 -0.000321993 -1.15125e-24 1.10619e-22 -2.04241e-21 1.2141e-42)
(0.000302234 -0.484533 1.02397e-24 8.2704e-07 -0.000295576 2.88164e-27 -1.29468e-22 5.24309e-21 -4.5556e-43)
(0.000275425 -0.48098 1.10585e-22 7.86716e-07 -0.0002696 3.22493e-26 4.02972e-24 -2.37712e-23 2.71257e-44)
(0.000250093 -0.477789 -5.436e-23 7.6136e-07 -0.000244835 -1.34142e-26 8.12579e-24 1.28222e-23 7.83048e-45)
(0.00022466 -0.474957 3.77158e-25 7.62252e-07 -0.000219898 1.32953e-27 -4.19715e-24 1.76537e-22 -7.36784e-45)
(0.000199325 -0.472473 2.01147e-23 7.41971e-07 -0.000195507 6.41444e-27 -1.5953e-25 -2.93671e-22 -5.76783e-45)
(0.00017525 -0.470332 0 7.24607e-07 -0.000171711 0 1.14431e-24 1.8326e-22 0)
(0.000150595 -0.468531 -8.33805e-24 7.09889e-07 -0.000148068 -1.10137e-27 2.70883e-24 -3.10151e-21 1.26758e-46)
(0.000127168 -0.467059 -2.63643e-23 6.94515e-07 -0.00012492 -3.51656e-27 -4.70614e-23 -3.25308e-21 -3.79097e-44)
(0.000103257 -0.465921 6.0296e-22 6.94862e-07 -0.000101755 9.75368e-26 -2.23873e-23 7.12112e-22 1.51004e-43)
(7.95541e-05 -0.46511 2.66235e-22 6.88659e-07 -7.85091e-05 3.50385e-26 6.80146e-23 -3.97667e-23 1.39754e-43)
(5.58762e-05 -0.46463 -2.7395e-22 6.86535e-07 -5.55669e-05 -2.57163e-26 1.97299e-23 -3.37813e-22 2.81362e-44)
(3.21933e-05 -0.464475 0 6.89322e-07 -3.2326e-05 0 -2.21421e-23 -7.48523e-23 0)
(8.30511e-06 -0.464651 0 6.87402e-07 -9.17644e-06 0 5.88224e-24 1.55177e-23 0)
(-1.54883e-05 -0.465154 -7.00598e-23 6.90782e-07 1.41016e-05 9.69857e-28 -8.57047e-25 -6.66255e-22 -4.61321e-44)
(-3.95441e-05 -0.465988 6.53009e-24 6.90329e-07 3.74647e-05 -2.7576e-29 -9.59399e-24 -2.60653e-24 -1.10121e-45)
(-6.33611e-05 -0.467149 2.62113e-23 6.89642e-07 6.08412e-05 -1.31918e-27 7.04245e-25 -1.57761e-22 3.38436e-45)
(-8.75584e-05 -0.468644 7.38966e-26 6.94155e-07 8.43379e-05 -6.07783e-28 1.16137e-23 2.38046e-21 -1.01535e-44)
(-0.000111564 -0.470468 -5.26934e-23 6.89527e-07 0.000107948 4.45922e-27 -3.85707e-24 1.75548e-22 1.01555e-44)
(-0.000135547 -0.472621 2.64039e-23 6.87954e-07 0.000131254 -2.53232e-27 -7.75877e-24 5.4723e-21 -3.38633e-45)
(-0.000159483 -0.475101 0 6.86545e-07 0.000154782 0 6.20689e-24 1.28466e-23 0)
(-0.000183393 -0.477908 -8.38474e-24 6.80411e-07 0.000177966 9.26877e-28 2.26421e-24 -3.02826e-22 2.3564e-46)
(-0.000206698 -0.481036 -8.4434e-24 6.81872e-07 0.000201069 1.06884e-27 2.63182e-23 -6.91249e-22 2.33647e-46)
(-0.000230422 -0.484482 -1.42994e-22 6.68395e-07 0.000223864 2.69111e-26 -1.61051e-24 9.52389e-22 1.37356e-43)
(-0.000252711 -0.488234 -8.48803e-25 6.60776e-07 0.000246056 2.29839e-27 -2.79137e-23 -3.11757e-25 -9.8214e-44)
(-0.000275554 -0.492295 -9.22586e-25 6.43101e-07 0.000268152 2.23097e-27 -3.71519e-22 1.34946e-20 -1.31204e-42)
(-0.000297234 -0.496651 2.63303e-21 5.99155e-07 0.00028952 -1.02268e-24 -3.4048e-22 4.33654e-21 9.33663e-42)
(-0.000318121 -0.501297 2.47665e-21 6.01058e-07 0.000310049 -1.05295e-24 7.2139e-22 -7.73817e-21 3.84733e-41)
(-0.000339497 -0.506228 -2.50304e-21 6.03445e-07 0.000330951 1.12561e-24 3.39865e-22 -7.6713e-21 -2.32788e-42)
(-0.000359656 -0.511432 0 5.84977e-07 0.000350805 0 -4.03295e-22 -1.06967e-20 0)
(-0.000380051 -0.516903 2.52999e-22 5.89143e-07 0.000370644 -7.83871e-26 4.42886e-23 -3.13319e-20 8.05814e-44)
(-0.000400014 -0.522643 -2.35023e-22 5.87735e-07 0.000390552 7.43034e-26 5.53292e-23 -1.76536e-21 -4.13647e-44)
(-0.000420107 -0.528653 -9.43447e-24 5.64826e-07 0.000410075 2.34535e-27 3.51355e-22 1.95427e-21 3.15799e-46)
(-0.000438437 -0.534921 -2.66969e-21 5.07031e-07 0.000428286 1.46583e-24 -9.99742e-24 -3.82235e-20 -8.14578e-41)
(-0.000454774 -0.541434 9.72249e-24 4.55654e-07 0.000444222 -2.55638e-27 -4.47049e-22 3.21604e-20 3.31737e-46)
(-0.000469327 -0.548157 2.51622e-22 4.3289e-07 0.000458669 -9.21607e-26 -7.78237e-22 3.27618e-20 5.9964e-42)
(-0.00048289 -0.555067 5.29454e-21 4.08087e-07 0.000472106 -3.14097e-24 -7.97085e-22 1.04195e-20 2.18409e-41)
(-0.000495749 -0.562153 5.62759e-21 4.23131e-07 0.000484669 -3.322e-24 6.83763e-22 1.90909e-20 -1.11681e-41)
(-0.000509481 -0.569415 5.16708e-22 4.47267e-07 0.000498144 -1.99505e-25 8.53168e-22 4.16883e-21 1.47967e-42)
(-0.000521699 -0.576855 -5.28602e-22 4.06652e-07 0.000510982 2.0301e-25 9.95861e-22 4.39544e-21 -1.52939e-42)
(-0.000534715 -0.584464 -5.88617e-21 4.52259e-07 0.000522523 3.59679e-24 8.9713e-22 -1.57659e-20 1.19776e-41)
(-0.000547119 -0.592238 -5.97783e-21 4.57422e-07 0.000536556 3.7046e-24 -9.98573e-22 5.71504e-20 4.04855e-40)
(-0.000560676 -0.600197 5.62921e-22 5.48804e-07 0.000547836 -2.29196e-25 -7.80271e-22 4.39036e-21 -1.00959e-43)
(-0.000575572 -0.608324 -5.87663e-22 5.67722e-07 0.000564547 2.3703e-25 -8.06662e-22 -4.27629e-21 2.01067e-43)
(-0.00058947 -0.61666 6.24727e-21 5.73983e-07 0.00057589 -4.00553e-24 -1.09996e-22 1.70397e-20 1.05764e-41)
(-0.000604695 -0.62516 -2.36005e-23 6.63145e-07 0.00059237 7.60936e-27 8.19784e-22 8.2065e-20 1.94671e-45)
(-0.000620065 -0.633881 6.03906e-22 6.60215e-07 0.000606128 -2.65168e-25 2.42958e-22 7.27915e-20 -1.75934e-42)
(-0.00063614 -0.642772 -1.22154e-21 7.51213e-07 0.000621658 5.4258e-25 8.43356e-24 5.43029e-21 3.6368e-42)
(-0.000652304 -0.651866 5.92704e-22 7.49497e-07 0.000637556 -2.68714e-25 -2.13265e-21 -5.05099e-21 -1.98177e-42)
(-0.000667238 -0.66114 1.36173e-20 7.45297e-07 0.000651438 -9.33512e-24 1.7453e-22 3.8775e-20 1.8319e-41)
(-0.000680926 -0.670561 -2.99187e-22 7.53996e-07 0.000665031 1.45326e-25 1.8412e-21 -9.98546e-25 -1.07e-43)
(-0.000692357 -0.680108 3.2686e-22 6.68958e-07 0.000676426 -1.55724e-25 -5.33196e-23 -5.13293e-21 5.50714e-44)
(-0.000700534 -0.689716 0 6.66168e-07 0.000683566 0 8.95605e-23 2.51671e-21 0)
(-0.000705384 -0.699341 -1.72205e-22 4.76217e-07 0.000690317 8.44431e-26 -1.44644e-23 1.3074e-21 5.66939e-44)
(-0.00070007 -0.708881 1.16176e-22 1.8622e-07 0.000684344 -6.24948e-26 -1.91728e-21 -8.15683e-20 -1.04291e-43)
(-0.000690176 -0.71819 1.51785e-20 2.08028e-07 0.0006745 -1.01622e-23 1.96198e-23 3.77004e-20 4.55975e-41)
(-0.000672867 -0.727232 4.23499e-23 -3.16679e-07 0.000663038 -1.93865e-26 1.93442e-21 7.94844e-20 -1.8962e-42)
(-0.000644948 -0.735832 -2.76289e-22 -4.07803e-07 0.000628125 1.26069e-25 -3.70524e-23 -7.90868e-20 1.27311e-43)
(-0.000613316 -0.74384 1.85721e-22 -8.67757e-07 0.0006075 -8.37695e-26 -9.11547e-22 1.17942e-21 -5.63593e-44)
(-0.000558626 -0.75122 7.93544e-21 -1.93742e-06 0.000546086 -4.23245e-24 2.14883e-23 1.65064e-20 1.65905e-41)
(-0.000480075 -0.757424 6.32157e-23 -2.32621e-06 0.000480826 -2.52595e-26 8.60049e-22 -3.74687e-20 1.72389e-42)
(-0.00045572 -0.762826 4.83262e-23 -4.01548e-07 0.000422162 -1.59083e-26 1.03443e-23 -5.86247e-24 1.68383e-44)
(-0.00039917 -0.767627 0 -3.9185e-06 0.000431186 0 6.64346e-24 -2.80834e-25 0)
(-0.000316028 -0.711271 6.08812e-25 -1.03744e-05 0.000270771 -1.34775e-28 -3.72978e-22 1.29405e-25 2.75864e-45)
(-0.000183026 -0.710656 3.98599e-21 -6.27811e-06 0.000220279 -7.79088e-25 2.24597e-23 -9.42574e-21 -2.21917e-42)
(-4.78554e-05 -0.709074 -3.11916e-22 -1.03447e-05 3.91997e-05 6.11921e-27 3.65575e-22 -5.84441e-20 -9.11562e-47)
(0.000131042 -0.706055 3.10448e-22 -8.74665e-06 -0.000106633 -6.0904e-27 -2.70322e-21 -5.67335e-20 9.0727e-47)
(0.000279776 -0.701864 4.66412e-20 -1.0135e-05 -0.000256905 9.44196e-24 2.64566e-21 -5.68932e-20 2.48215e-39)
(0.000452255 -0.696547 -4.62322e-20 -9.67452e-06 -0.000429991 -1.68174e-23 1.4754e-21 -5.05267e-20 1.35141e-40)
(0.000607381 -0.69012 1.54614e-20 -8.67362e-06 -0.000574473 5.11518e-24 -2.52292e-21 -1.28452e-19 -2.54803e-41)
(0.000752524 -0.682808 -1.48896e-22 -8.49281e-06 -0.000722748 -8.19973e-26 2.32015e-21 9.34824e-20 2.07174e-42)
(0.000890041 -0.674644 -1.48592e-20 -7.40854e-06 -0.000856717 -7.70221e-24 2.17811e-21 -6.0439e-20 -2.80458e-41)
(0.00100643 -0.665811 -4.31947e-20 -6.42768e-06 -0.000973979 -3.81345e-23 -2.20672e-21 4.61094e-20 1.91988e-39)
(0.00110903 -0.65643 2.91041e-20 -5.43446e-06 -0.00107576 3.33068e-23 -2.04705e-21 -1.83342e-20 8.9987e-40)
(0.00119178 -0.646636 -1.12175e-21 -4.44214e-06 -0.00115952 -9.25501e-25 1.30855e-22 9.00724e-23 -1.40687e-41)
(0.00125985 -0.636567 1.38632e-20 -3.43221e-06 -0.00122822 1.09981e-23 -6.02916e-23 -2.20636e-20 -2.33726e-41)
(0.0013107 -0.62633 0 -2.44228e-06 -0.00128011 0 -6.26762e-22 -3.11508e-21 0)
(0.00134479 -0.616031 3.76166e-20 -1.4651e-06 -0.0013167 4.93348e-23 -1.21836e-22 3.17765e-20 -2.79197e-41)
(0.00136528 -0.605748 2.06175e-21 -6.3183e-07 -0.00133774 2.17586e-24 1.53929e-21 -2.49481e-22 4.50545e-41)
(0.00137097 -0.595573 0 2.04647e-07 -0.0013468 0 1.00219e-22 -1.92917e-21 0)
(0.00136397 -0.585586 0 1.04059e-06 -0.00134051 0 2.2114e-22 5.02192e-20 0)
(0.00134339 -0.575849 -4.11451e-21 1.69674e-06 -0.00132289 -3.55575e-24 1.00679e-22 -3.68085e-20 -1.64226e-41)
(0.00131346 -0.566416 -1.88332e-21 2.20054e-06 -0.00129414 -2.11158e-24 -2.23558e-22 -4.514e-20 8.68839e-42)
(0.00127502 -0.557361 0 2.46905e-06 -0.00125812 0 -2.90389e-22 2.47643e-21 0)
(0.00123596 -0.548721 3.82536e-21 2.55545e-06 -0.00121934 3.21235e-24 1.99458e-22 -1.10159e-20 -1.0594e-41)
(0.00119446 -0.540465 -3.70968e-21 2.77642e-06 -0.00118079 -3.03538e-24 9.53518e-22 4.31133e-20 -1.33133e-41)
(0.00114906 -0.53259 -2.7489e-20 3.02688e-06 -0.00113582 -3.85709e-23 2.99431e-22 -2.02932e-20 -1.04895e-40)
(0.00110019 -0.525123 -1.61148e-20 3.10943e-06 -0.00108931 -2.07197e-23 -8.12552e-22 -5.71441e-21 2.72077e-41)
(0.0010503 -0.518055 1.6362e-21 3.20134e-06 -0.00104035 1.61155e-24 3.11436e-23 -1.1321e-21 -1.18141e-41)
(0.00099872 -0.511398 -1.71799e-20 3.24241e-06 -0.000990316 -2.03625e-23 2.90413e-22 -2.22079e-20 -1.26223e-40)
(0.000946585 -0.505145 -4.93724e-21 3.26729e-06 -0.00093919 -3.84127e-24 -5.42874e-22 4.06451e-21 -2.80215e-42)
(0.00089404 -0.499294 7.76041e-22 3.24038e-06 -0.000887844 6.79963e-25 -1.96025e-22 -7.0234e-22 -9.5867e-46)
(0.000842033 -0.493837 -7.73355e-22 3.19878e-06 -0.000836754 -6.7761e-25 4.6452e-22 -2.26644e-22 9.55352e-46)
(0.000790469 -0.488767 -1.46163e-20 3.14615e-06 -0.000786049 -1.48075e-23 -4.88089e-22 -2.06218e-20 -1.40855e-40)
(0.000739671 -0.484074 1.51626e-20 3.07896e-06 -0.000736043 1.44168e-23 -7.18574e-22 2.1762e-20 -1.35468e-40)
(0.000689891 -0.479752 1.0495e-20 3.00165e-06 -0.000686917 1.04581e-23 3.23308e-22 7.77642e-21 -4.31624e-41)
(0.000641266 -0.475785 5.52414e-21 2.91409e-06 -0.00063884 5.23994e-24 2.7555e-22 5.04446e-21 -9.58161e-42)
(0.000593554 -0.472171 0 2.83357e-06 -0.000591874 0 2.42946e-22 6.07067e-22 0)
(0.000547491 -0.468891 -1.83362e-21 2.76516e-06 -0.000545978 -9.01689e-25 -1.22968e-22 1.01053e-20 -9.06171e-43)
(0.000501782 -0.465943 2.15988e-21 2.68273e-06 -0.000500942 1.00483e-24 1.62059e-22 5.28085e-21 -1.74508e-42)
(0.000457796 -0.463315 -7.11551e-21 2.61202e-06 -0.000457188 -4.51631e-24 1.21104e-22 4.10718e-21 4.78155e-41)
(0.000414339 -0.461 0 2.5218e-06 -0.000414146 0 -2.65614e-22 6.77413e-22 0)
(0.000372727 -0.458988 0 2.46665e-06 -0.000372708 0 8.00041e-24 8.40893e-21 0)
(0.000331052 -0.457275 -1.69449e-22 2.45253e-06 -0.000331113 -6.39521e-26 -1.83338e-23 5.8554e-22 -2.89508e-44)
(0.000289831 -0.455856 3.37721e-22 2.39387e-06 -0.000290454 1.20404e-25 4.23337e-25 -3.30493e-22 5.66399e-44)
(0.000250122 -0.454723 -1.68296e-22 2.35523e-06 -0.000250588 -5.64674e-26 -1.41311e-22 4.96944e-21 -2.76943e-44)
(0.000209779 -0.453877 3.26631e-21 2.32084e-06 -0.000210861 1.03994e-24 -1.75841e-22 2.22803e-21 1.34553e-42)
(0.000171072 -0.453311 3.25579e-21 2.29217e-06 -0.000171911 8.63876e-25 2.02564e-22 -3.9788e-22 8.6373e-42)
(0.000131729 -0.453023 -5.08212e-22 2.29656e-06 -0.000132889 -8.28693e-26 1.66265e-22 8.09576e-22 -9.96901e-44)
(9.27737e-05 -0.453009 -2.53411e-22 2.28447e-06 -9.38714e-05 -3.24723e-26 -6.41372e-23 6.60701e-22 -1.2959e-43)
(5.37539e-05 -0.453268 2.11603e-22 2.28318e-06 -5.51642e-05 2.02492e-26 -3.81784e-24 -5.70993e-22 -4.46472e-44)
(1.47789e-05 -0.4538 5.16436e-23 2.29284e-06 -1.61555e-05 3.83811e-27 2.1475e-23 -7.97534e-24 1.95045e-44)
(-2.43442e-05 -0.454603 -1.03263e-23 2.29342e-06 2.28419e-05 -4.1358e-28 -2.98809e-23 -2.51013e-23 -5.84861e-46)
(-6.33331e-05 -0.455679 4.68678e-22 2.30475e-06 6.20312e-05 -2.45937e-26 -7.86814e-25 2.7827e-22 1.02165e-43)
(-0.000102849 -0.457026 0 2.3087e-06 0.000101363 0 2.62758e-23 1.83902e-21 0)
(-0.00014199 -0.458646 8.31387e-23 2.31305e-06 0.000140657 -1.09238e-26 1.21443e-22 5.72668e-23 -1.76092e-43)
(-0.000181429 -0.460537 -1.63507e-21 2.32453e-06 0.000180082 3.57513e-25 1.51336e-23 -1.72018e-21 4.79522e-43)
(-0.00022061 -0.462696 -8.34767e-23 2.31393e-06 0.000219531 1.45194e-26 1.57992e-22 1.23905e-22 1.99757e-43)
(-0.000259753 -0.465122 -3.4691e-21 2.30917e-06 0.000258587 1.11953e-24 -7.43641e-24 -3.87347e-21 3.23607e-42)
(-0.000298574 -0.467811 -8.57896e-25 2.30217e-06 0.000297713 7.08051e-27 -2.9688e-22 5.65388e-22 -9.19077e-43)
(-0.00033719 -0.470762 1.69583e-22 2.27997e-06 0.000336285 -5.04601e-26 -3.78739e-23 -1.22876e-21 5.17723e-44)
(-0.000374726 -0.473967 3.43598e-22 2.26483e-06 0.000374441 -1.28938e-25 5.53733e-23 9.99214e-21 2.3625e-46)
(-0.000412708 -0.477425 -3.44007e-22 2.22016e-06 0.000412078 1.29092e-25 3.50779e-23 -1.95837e-20 -2.36532e-46)
(-0.000448494 -0.481126 0 2.18538e-06 0.000448551 0 6.46393e-22 -6.3773e-22 0)
(-0.000484694 -0.485067 -7.2497e-21 2.14318e-06 0.000484619 4.3772e-24 2.88767e-22 -7.80754e-21 2.82381e-41)
(-0.000519285 -0.489238 -1.81613e-21 2.0533e-06 0.00051961 7.00019e-25 -1.0249e-21 5.21477e-21 -1.21592e-41)
(-0.000552394 -0.493634 4.84046e-21 2.03185e-06 0.000553194 -3.89937e-24 -7.26747e-22 1.72048e-20 -5.82315e-41)
(-0.000585629 -0.498243 2.94596e-21 2.00618e-06 0.000586743 -1.41206e-24 -1.93298e-22 1.66802e-20 1.43113e-41)
(-0.000617229 -0.50306 5.72189e-21 1.95258e-06 0.000618748 -4.58256e-24 -1.12008e-21 1.0783e-20 -4.56634e-41)
(-0.00064884 -0.508081 1.52827e-20 1.95455e-06 0.000650445 -1.19026e-23 4.50061e-22 2.232e-20 9.43769e-41)
(-0.000679441 -0.513296 7.55237e-22 1.93915e-06 0.000681823 -4.87658e-25 1.65875e-21 -4.28296e-21 2.54089e-45)
(-0.000710303 -0.518707 -7.5745e-22 1.86121e-06 0.000712758 4.89087e-25 -1.88032e-21 -4.81229e-20 -2.54833e-45)
(-0.000738824 -0.524314 1.74752e-20 1.68693e-06 0.000742006 -1.4479e-23 1.5144e-21 1.45098e-20 2.08077e-40)
(-0.000764331 -0.530122 -1.53104e-20 1.50616e-06 0.000767881 1.36569e-23 3.59024e-21 -2.37459e-20 5.26528e-41)
(-0.00078632 -0.536101 -1.55242e-20 1.39086e-06 0.000790382 1.40874e-23 -9.95451e-22 -2.33811e-20 5.34765e-41)
(-0.000806237 -0.542221 -3.34312e-21 1.30276e-06 0.000810697 1.72368e-24 -5.82906e-22 1.70668e-20 -6.79211e-41)
(-0.0008253 -0.548477 -6.67414e-21 1.3116e-06 0.0008298 4.15384e-24 -4.051e-22 1.9272e-20 5.31907e-41)
(-0.000844856 -0.554868 -1.67226e-21 1.33376e-06 0.000849349 1.2376e-24 -8.39597e-22 2.5501e-21 1.11685e-41)
(-0.000862227 -0.561386 1.68039e-21 1.23692e-06 0.000867725 -1.24362e-24 -1.09347e-21 3.8475e-22 -1.12228e-41)