/*--------------------------------*- C++ -*----------------------------------*\
| =========                 |                                                 |
| \\      /  F ield         | OpenFOAM: The Open Source CFD Toolbox           |
|  \\    /   O peration     | Version:  2006                                  |
|   \\  /    A nd           | Website:  www.openfoam.com                      |
|    \\/     M anipulation  |                                                 |
\*---------------------------------------------------------------------------*/
FoamFile
{
    version     2.0;
    format      ascii;
    class       volScalarField;
    location    "20000";
    object      gradpx;
}
// * * * * * * * * * * * * * * * * * * * * * * * * * * * * * * * * * * * * * //

dimensions      [0 1 -2 0 0 0 0];


internalField   nonuniform List<scalar> 
14751
(
-3.16709e-05
-3.37577e-05
-3.70149e-05
-3.88381e-05
-4.11883e-05
-4.2598e-05
-4.36096e-05
-4.42929e-05
-4.43806e-05
-4.40746e-05
-4.33544e-05
-4.22628e-05
-4.08113e-05
-3.9094e-05
-3.71194e-05
-3.497e-05
-3.26687e-05
-3.02564e-05
-2.77995e-05
-2.53143e-05
-2.28225e-05
-2.03444e-05
-1.78845e-05
-1.54707e-05
-1.31369e-05
-1.08664e-05
-8.67907e-06
-6.56869e-06
-4.54799e-06
-2.60934e-06
-7.55297e-07
1.01567e-06
2.70711e-06
4.318e-06
5.85898e-06
7.32652e-06
8.72112e-06
1.00524e-05
1.13228e-05
1.25345e-05
1.3682e-05
1.47787e-05
1.58172e-05
1.68045e-05
1.77446e-05
1.86311e-05
1.9468e-05
2.02542e-05
2.09918e-05
2.16787e-05
2.23134e-05
2.28965e-05
2.34299e-05
2.39096e-05
2.43326e-05
2.47019e-05
2.50154e-05
2.52723e-05
2.54638e-05
2.55996e-05
2.56776e-05
2.56887e-05
2.5646e-05
2.55392e-05
2.53675e-05
2.51325e-05
2.48432e-05
2.4485e-05
2.4058e-05
2.35783e-05
2.30494e-05
2.24816e-05
2.18585e-05
2.11898e-05
2.04755e-05
1.96751e-05
1.88545e-05
1.79528e-05
1.70005e-05
1.59671e-05
1.48577e-05
1.36875e-05
1.23755e-05
1.09875e-05
9.45767e-06
7.80118e-06
5.99274e-06
3.99179e-06
1.85913e-06
-5.11601e-07
-3.07484e-06
-5.7141e-06
-8.73327e-06
-1.17018e-05
-1.49236e-05
-1.83986e-05
-2.18028e-05
-2.40874e-05
-2.84644e-05
-3.16641e-05
-3.37569e-05
-3.70128e-05
-3.88318e-05
-4.11864e-05
-4.2595e-05
-4.3607e-05
-4.429e-05
-4.43781e-05
-4.4072e-05
-4.33508e-05
-4.226e-05
-4.0809e-05
-3.90912e-05
-3.71165e-05
-3.49673e-05
-3.26665e-05
-3.02545e-05
-2.77973e-05
-2.53128e-05
-2.28216e-05
-2.03431e-05
-1.78832e-05
-1.54704e-05
-1.31367e-05
-1.08658e-05
-8.67893e-06
-6.56859e-06
-4.54741e-06
-2.60981e-06
-7.5579e-07
1.01566e-06
2.70706e-06
4.31742e-06
5.85838e-06
7.32639e-06
8.72096e-06
1.00517e-05
1.13216e-05
1.25338e-05
1.36817e-05
1.47784e-05
1.58164e-05
1.68037e-05
1.77444e-05
1.86303e-05
1.94672e-05
2.02539e-05
2.09909e-05
2.16778e-05
2.23126e-05
2.28956e-05
2.3429e-05
2.39088e-05
2.43323e-05
2.47016e-05
2.50141e-05
2.5271e-05
2.54635e-05
2.55993e-05
2.56768e-05
2.5688e-05
2.56455e-05
2.55386e-05
2.53669e-05
2.51319e-05
2.48432e-05
2.44851e-05
2.40576e-05
2.35774e-05
2.30491e-05
2.24823e-05
2.18593e-05
2.11856e-05
2.04764e-05
1.96812e-05
1.88504e-05
1.79538e-05
1.70014e-05
1.59681e-05
1.48636e-05
1.36834e-05
1.23713e-05
1.09935e-05
9.46378e-06
7.79726e-06
5.98901e-06
3.99332e-06
1.86584e-06
-5.04529e-07
-3.07275e-06
-5.71178e-06
-8.73043e-06
-1.16943e-05
-1.49155e-05
-1.83961e-05
-2.17997e-05
-2.40847e-05
-2.8462e-05
-3.16579e-05
-3.37517e-05
-3.70077e-05
-3.88296e-05
-4.11825e-05
-4.25915e-05
-4.36035e-05
-4.42871e-05
-4.43751e-05
-4.40691e-05
-4.33486e-05
-4.22574e-05
-4.08065e-05
-3.90892e-05
-3.71142e-05
-3.49654e-05
-3.26646e-05
-3.02527e-05
-2.7796e-05
-2.53114e-05
-2.28199e-05
-2.03421e-05
-1.78827e-05
-1.54695e-05
-1.31361e-05
-1.08657e-05
-8.67876e-06
-6.56888e-06
-4.54817e-06
-2.61003e-06
-7.55993e-07
1.01547e-06
2.70638e-06
4.31674e-06
5.85771e-06
7.32521e-06
8.72028e-06
1.00515e-05
1.1321e-05
1.25326e-05
1.36805e-05
1.47777e-05
1.58162e-05
1.68024e-05
1.77431e-05
1.86296e-05
1.94659e-05
2.02526e-05
2.09902e-05
2.16771e-05
2.23113e-05
2.28949e-05
2.34283e-05
2.39075e-05
2.43316e-05
2.47004e-05
2.5013e-05
2.52703e-05
2.54624e-05
2.55982e-05
2.56763e-05
2.56875e-05
2.5645e-05
2.55382e-05
2.5366e-05
2.51311e-05
2.48429e-05
2.44843e-05
2.40574e-05
2.35763e-05
2.3053e-05
2.24833e-05
2.18552e-05
2.11866e-05
2.04774e-05
1.96823e-05
1.88514e-05
1.79498e-05
1.70022e-05
1.59739e-05
1.48641e-05
1.36837e-05
1.23715e-05
1.09936e-05
9.46399e-06
7.80262e-06
5.99454e-06
3.99403e-06
1.86672e-06
-5.03271e-07
-3.07626e-06
-5.70995e-06
-8.72308e-06
-1.16925e-05
-1.49135e-05
-1.83897e-05
-2.17983e-05
-2.40834e-05
-2.84506e-05
-3.16575e-05
-3.37475e-05
-3.69987e-05
-3.88207e-05
-4.11821e-05
-4.25882e-05
-4.35999e-05
-4.42848e-05
-4.43731e-05
-4.40674e-05
-4.33468e-05
-4.22553e-05
-4.08051e-05
-3.90879e-05
-3.71122e-05
-3.49635e-05
-3.26629e-05
-3.02514e-05
-2.77945e-05
-2.531e-05
-2.28189e-05
-2.03408e-05
-1.7882e-05
-1.54691e-05
-1.31356e-05
-1.08655e-05
-8.67898e-06
-6.56899e-06
-4.54817e-06
-2.61046e-06
-7.5686e-07
1.01415e-06
2.70562e-06
4.31602e-06
5.8565e-06
7.32453e-06
8.71911e-06
1.00498e-05
1.13203e-05
1.2532e-05
1.36793e-05
1.47765e-05
1.58145e-05
1.68013e-05
1.77419e-05
1.86284e-05
1.94647e-05
2.02514e-05
2.0989e-05
2.16754e-05
2.23101e-05
2.28937e-05
2.34272e-05
2.39064e-05
2.433e-05
2.46993e-05
2.50119e-05
2.52693e-05
2.54614e-05
2.55972e-05
2.56753e-05
2.56861e-05
2.56441e-05
2.55374e-05
2.53658e-05
2.51309e-05
2.48417e-05
2.44843e-05
2.40569e-05
2.35743e-05
2.30526e-05
2.24844e-05
2.18564e-05
2.11878e-05
2.04737e-05
1.96785e-05
1.88577e-05
1.7956e-05
1.70029e-05
1.59743e-05
1.48641e-05
1.36835e-05
1.2376e-05
1.09981e-05
9.46337e-06
7.79716e-06
5.99439e-06
3.99924e-06
1.86717e-06
-4.97379e-07
-3.07002e-06
-5.7084e-06
-8.72106e-06
-1.16909e-05
-1.49071e-05
-1.83844e-05
-2.17981e-05
-2.4073e-05
-2.84448e-05
-3.16624e-05
-3.37337e-05
-3.69913e-05
-3.88186e-05
-4.11778e-05
-4.25854e-05
-4.35968e-05
-4.42831e-05
-4.4372e-05
-4.40663e-05
-4.33458e-05
-4.22551e-05
-4.08046e-05
-3.90871e-05
-3.71116e-05
-3.49627e-05
-3.26621e-05
-3.02502e-05
-2.77933e-05
-2.53092e-05
-2.28181e-05
-2.03403e-05
-1.78809e-05
-1.54684e-05
-1.31362e-05
-1.08658e-05
-8.67909e-06
-6.56992e-06
-4.54944e-06
-2.61159e-06
-7.57869e-07
1.01325e-06
2.70377e-06
4.31424e-06
5.8558e-06
7.32285e-06
8.71695e-06
1.00487e-05
1.13187e-05
1.25299e-05
1.36777e-05
1.47745e-05
1.58124e-05
1.67997e-05
1.77403e-05
1.86268e-05
1.94631e-05
2.02493e-05
2.09874e-05
2.16738e-05
2.23081e-05
2.28922e-05
2.34251e-05
2.39044e-05
2.43284e-05
2.46978e-05
2.50109e-05
2.52679e-05
2.546e-05
2.55963e-05
2.5674e-05
2.56853e-05
2.56434e-05
2.55367e-05
2.53651e-05
2.51303e-05
2.48417e-05
2.44838e-05
2.4057e-05
2.35749e-05
2.30533e-05
2.24857e-05
2.18577e-05
2.11892e-05
2.04751e-05
1.968e-05
1.8854e-05
1.79519e-05
1.70036e-05
1.59747e-05
1.48689e-05
1.3688e-05
1.23751e-05
1.09969e-05
9.46737e-06
7.80638e-06
5.99886e-06
4.00404e-06
1.87228e-06
-4.96781e-07
-3.06908e-06
-5.70183e-06
-8.71411e-06
-1.16844e-05
-1.49061e-05
-1.83845e-05
-2.17935e-05
-2.40581e-05
-2.84396e-05
-3.16626e-05
-3.37256e-05
-3.699e-05
-3.88096e-05
-4.11716e-05
-4.25832e-05
-4.35939e-05
-4.42823e-05
-4.43724e-05
-4.40666e-05
-4.33467e-05
-4.22555e-05
-4.08051e-05
-3.90883e-05
-3.71122e-05
-3.49636e-05
-3.26631e-05
-3.0251e-05
-2.77938e-05
-2.53081e-05
-2.28156e-05
-2.03391e-05
-1.78822e-05
-1.54699e-05
-1.31373e-05
-1.08677e-05
-8.68109e-06
-6.57216e-06
-4.55196e-06
-2.6139e-06
-7.60518e-07
1.01075e-06
2.7014e-06
4.31145e-06
5.85259e-06
7.32021e-06
8.71436e-06
1.00457e-05
1.13157e-05
1.25269e-05
1.36747e-05
1.47715e-05
1.58099e-05
1.67967e-05
1.77373e-05
1.86238e-05
1.94601e-05
2.02468e-05
2.09844e-05
2.16708e-05
2.23055e-05
2.28896e-05
2.34226e-05
2.39024e-05
2.43264e-05
2.46958e-05
2.5009e-05
2.52659e-05
2.54586e-05
2.5595e-05
2.56732e-05
2.56845e-05
2.56422e-05
2.5536e-05
2.5365e-05
2.51302e-05
2.48417e-05
2.44838e-05
2.4058e-05
2.35766e-05
2.30546e-05
2.24869e-05
2.1859e-05
2.11904e-05
2.04763e-05
1.96813e-05
1.88552e-05
1.79529e-05
1.70091e-05
1.59797e-05
1.48682e-05
1.36918e-05
1.23785e-05
1.10001e-05
9.4708e-06
7.80497e-06
6.00285e-06
4.00837e-06
1.87698e-06
-4.91374e-07
-3.06302e-06
-5.69503e-06
-8.71198e-06
-1.16777e-05
-1.48951e-05
-1.83747e-05
-2.17943e-05
-2.40437e-05
-2.84298e-05
-3.16681e-05
-3.37079e-05
-3.6985e-05
-3.88016e-05
-4.11647e-05
-4.25801e-05
-4.35917e-05
-4.42821e-05
-4.43731e-05
-4.40689e-05
-4.33493e-05
-4.22584e-05
-4.08081e-05
-3.90913e-05
-3.71156e-05
-3.49664e-05
-3.26661e-05
-3.02539e-05
-2.77965e-05
-2.53097e-05
-2.28158e-05
-2.0341e-05
-1.78854e-05
-1.54734e-05
-1.31413e-05
-1.08717e-05
-8.68577e-06
-6.57651e-06
-4.55602e-06
-2.61822e-06
-7.65131e-07
1.0058e-06
2.6971e-06
4.30677e-06
5.84749e-06
7.31569e-06
8.7099e-06
1.00407e-05
1.13113e-05
1.25225e-05
1.36698e-05
1.47671e-05
1.58055e-05
1.67928e-05
1.77329e-05
1.86194e-05
1.94562e-05
2.02424e-05
2.09799e-05
2.16673e-05
2.23021e-05
2.28857e-05
2.34196e-05
2.38994e-05
2.43235e-05
2.46934e-05
2.50071e-05
2.52645e-05
2.54572e-05
2.55931e-05
2.56713e-05
2.56842e-05
2.56419e-05
2.55358e-05
2.53649e-05
2.51301e-05
2.48421e-05
2.44848e-05
2.40601e-05
2.35832e-05
2.30557e-05
2.24881e-05
2.18602e-05
2.11866e-05
2.04826e-05
1.96876e-05
1.88562e-05
1.79537e-05
1.70093e-05
1.59791e-05
1.48721e-05
1.3695e-05
1.23814e-05
1.10078e-05
9.47852e-06
7.8131e-06
6.00649e-06
4.01239e-06
1.88698e-06
-4.80786e-07
-3.05161e-06
-5.68328e-06
-8.70442e-06
-1.16707e-05
-1.48838e-05
-1.83649e-05
-2.18005e-05
-2.40192e-05
-2.84153e-05
-3.16687e-05
-3.36857e-05
-3.69813e-05
-3.87936e-05
-4.11565e-05
-4.25769e-05
-4.35896e-05
-4.42827e-05
-4.43761e-05
-4.40729e-05
-4.33543e-05
-4.22643e-05
-4.08145e-05
-3.90982e-05
-3.71217e-05
-3.49728e-05
-3.26727e-05
-3.02596e-05
-2.78025e-05
-2.53152e-05
-2.28203e-05
-2.03463e-05
-1.78911e-05
-1.54791e-05
-1.31476e-05
-1.0878e-05
-8.69172e-06
-6.58262e-06
-4.56233e-06
-2.62429e-06
-7.70981e-07
1.00012e-06
2.69106e-06
4.30083e-06
5.84213e-06
7.30937e-06
8.70362e-06
1.0036e-05
1.13055e-05
1.25168e-05
1.36651e-05
1.47613e-05
1.57997e-05
1.67875e-05
1.77276e-05
1.86141e-05
1.94514e-05
2.0238e-05
2.09755e-05
2.16629e-05
2.22982e-05
2.28822e-05
2.34162e-05
2.38965e-05
2.43211e-05
2.4691e-05
2.50047e-05
2.52627e-05
2.54558e-05
2.55923e-05
2.56711e-05
2.5684e-05
2.56423e-05
2.55362e-05
2.53658e-05
2.51311e-05
2.48432e-05
2.44865e-05
2.40618e-05
2.3583e-05
2.306e-05
2.24894e-05
2.18615e-05
2.11931e-05
2.04843e-05
1.96889e-05
1.88625e-05
1.79597e-05
1.70098e-05
1.59838e-05
1.48763e-05
1.37033e-05
1.23894e-05
1.10107e-05
9.48626e-06
7.82142e-06
6.01524e-06
4.0272e-06
1.90199e-06
-4.69899e-07
-3.04472e-06
-5.67073e-06
-8.69138e-06
-1.16577e-05
-1.48669e-05
-1.83546e-05
-2.17963e-05
-2.39846e-05
-2.8401e-05
-3.16694e-05
-3.36591e-05
-3.69735e-05
-3.87821e-05
-4.11491e-05
-4.25743e-05
-4.35896e-05
-4.42856e-05
-4.43812e-05
-4.40809e-05
-4.33634e-05
-4.22742e-05
-4.08252e-05
-3.91082e-05
-3.71319e-05
-3.49828e-05
-3.26821e-05
-3.0269e-05
-2.78114e-05
-2.53237e-05
-2.28279e-05
-2.03532e-05
-1.78989e-05
-1.54865e-05
-1.31545e-05
-1.0885e-05
-8.69878e-06
-6.58985e-06
-4.56876e-06
-2.63099e-06
-7.77991e-07
9.93249e-07
2.68432e-06
4.29467e-06
5.83603e-06
7.30383e-06
8.69808e-06
1.00295e-05
1.12995e-05
1.25112e-05
1.3659e-05
1.47557e-05
1.57946e-05
1.67818e-05
1.77224e-05
1.86093e-05
1.94461e-05
2.02332e-05
2.09717e-05
2.16591e-05
2.22948e-05
2.28794e-05
2.34133e-05
2.38936e-05
2.43187e-05
2.46896e-05
2.50033e-05
2.52614e-05
2.54556e-05
2.55926e-05
2.56714e-05
2.56854e-05
2.56437e-05
2.55377e-05
2.53674e-05
2.51333e-05
2.4846e-05
2.44893e-05
2.40653e-05
2.359e-05
2.30611e-05
2.2491e-05
2.18686e-05
2.12001e-05
2.04862e-05
1.96909e-05
1.88693e-05
1.7966e-05
1.70154e-05
1.5989e-05
1.48807e-05
1.37071e-05
1.24025e-05
1.10188e-05
9.49468e-06
7.83529e-06
6.0299e-06
4.03739e-06
1.91273e-06
-4.47941e-07
-3.02704e-06
-5.65676e-06
-8.67191e-06
-1.16384e-05
-1.48494e-05
-1.83387e-05
-2.17965e-05
-2.39499e-05
-2.83869e-05
-3.167e-05
-3.3628e-05
-3.69669e-05
-3.87793e-05
-4.11441e-05
-4.2573e-05
-4.35928e-05
-4.42918e-05
-4.43909e-05
-4.40924e-05
-4.33765e-05
-4.22884e-05
-4.08403e-05
-3.91229e-05
-3.71463e-05
-3.49965e-05
-3.26952e-05
-3.02817e-05
-2.78232e-05
-2.53342e-05
-2.28367e-05
-2.03622e-05
-1.79078e-05
-1.54951e-05
-1.31631e-05
-1.08931e-05
-8.70646e-06
-6.59719e-06
-4.57634e-06
-2.63834e-06
-7.84671e-07
9.86704e-07
2.67786e-06
4.2888e-06
5.82969e-06
7.29751e-06
8.69177e-06
1.00236e-05
1.12941e-05
1.25053e-05
1.36536e-05
1.47503e-05
1.57896e-05
1.67773e-05
1.77173e-05
1.86047e-05
1.94419e-05
2.0229e-05
2.0968e-05
2.16558e-05
2.22915e-05
2.28766e-05
2.3411e-05
2.38923e-05
2.43174e-05
2.46883e-05
2.50036e-05
2.52616e-05
2.54564e-05
2.55945e-05
2.56733e-05
2.56874e-05
2.56458e-05
2.55404e-05
2.53712e-05
2.51371e-05
2.48494e-05
2.44934e-05
2.40699e-05
2.35923e-05
2.30668e-05
2.25032e-05
2.18756e-05
2.12021e-05
2.04931e-05
1.96932e-05
1.88713e-05
1.79727e-05
1.70215e-05
1.59996e-05
1.489e-05
1.37163e-05
1.24111e-05
1.10319e-05
9.50859e-06
7.84961e-06
6.0452e-06
4.0533e-06
1.93508e-06
-4.30274e-07
-3.00805e-06
-5.63152e-06
-8.65139e-06
-1.16235e-05
-1.48308e-05
-1.8312e-05
-2.17916e-05
-2.39151e-05
-2.83678e-05
-3.16707e-05
-3.35976e-05
-3.69657e-05
-3.87747e-05
-4.11388e-05
-4.25748e-05
-4.35995e-05
-4.43018e-05
-4.44043e-05
-4.41091e-05
-4.33946e-05
-4.23065e-05
-4.08592e-05
-3.91425e-05
-3.71649e-05
-3.50139e-05
-3.27115e-05
-3.02973e-05
-2.78375e-05
-2.53467e-05
-2.28485e-05
-2.03728e-05
-1.79179e-05
-1.55047e-05
-1.31717e-05
-1.09018e-05
-8.71524e-06
-6.60514e-06
-4.58355e-06
-2.64531e-06
-7.91499e-07
9.79996e-07
2.67123e-06
4.28271e-06
5.82363e-06
7.29144e-06
8.68619e-06
1.00185e-05
1.12885e-05
1.24996e-05
1.36489e-05
1.47454e-05
1.57847e-05
1.67723e-05
1.77128e-05
1.86011e-05
1.94383e-05
2.02259e-05
2.09653e-05
2.16531e-05
2.22893e-05
2.28748e-05
2.34097e-05
2.38915e-05
2.43176e-05
2.46886e-05
2.50044e-05
2.52635e-05
2.54583e-05
2.55969e-05
2.56763e-05
2.5691e-05
2.56499e-05
2.55451e-05
2.5376e-05
2.51421e-05
2.48545e-05
2.44986e-05
2.40762e-05
2.35977e-05
2.30751e-05
2.25106e-05
2.18778e-05
2.12045e-05
2.05006e-05
1.97055e-05
1.8879e-05
1.79799e-05
1.7033e-05
1.60052e-05
1.48998e-05
1.37307e-05
1.24198e-05
1.10458e-05
9.52777e-06
7.86914e-06
6.06537e-06
4.07503e-06
1.95249e-06
-4.07051e-07
-2.97834e-06
-5.61107e-06
-8.63008e-06
-1.15972e-05
-1.48065e-05
-1.82946e-05
-2.17912e-05
-2.38699e-05
-2.83486e-05
-3.16711e-05
-3.35678e-05
-3.69608e-05
-3.87707e-05
-4.11376e-05
-4.25796e-05
-4.36103e-05
-4.43158e-05
-4.44229e-05
-4.41305e-05
-4.34172e-05
-4.23302e-05
-4.08834e-05
-3.91662e-05
-3.71877e-05
-3.50351e-05
-3.27316e-05
-3.03158e-05
-2.78542e-05
-2.53617e-05
-2.28614e-05
-2.03845e-05
-1.7929e-05
-1.55154e-05
-1.31819e-05
-1.09115e-05
-8.72409e-06
-6.61266e-06
-4.59131e-06
-2.65291e-06
-7.97936e-07
9.73644e-07
2.66542e-06
4.27692e-06
5.81784e-06
7.28613e-06
8.68084e-06
1.00136e-05
1.1284e-05
1.24946e-05
1.36443e-05
1.47413e-05
1.57805e-05
1.6769e-05
1.77094e-05
1.85977e-05
1.94358e-05
2.02233e-05
2.09627e-05
2.16515e-05
2.22881e-05
2.28741e-05
2.341e-05
2.38918e-05
2.43179e-05
2.46904e-05
2.50072e-05
2.52658e-05
2.54617e-05
2.56014e-05
2.56809e-05
2.56961e-05
2.56557e-05
2.55505e-05
2.53815e-05
2.51487e-05
2.48613e-05
2.45055e-05
2.40838e-05
2.36059e-05
2.30855e-05
2.25179e-05
2.18853e-05
2.12125e-05
2.05038e-05
1.97136e-05
1.88916e-05
1.79873e-05
1.70397e-05
1.60161e-05
1.49156e-05
1.37449e-05
1.24342e-05
1.10654e-05
9.54203e-06
7.88437e-06
6.09137e-06
4.1018e-06
1.97547e-06
-3.82214e-07
-2.9524e-06
-5.57923e-06
-8.59789e-06
-1.15758e-05
-1.47815e-05
-1.82619e-05
-2.17855e-05
-2.38344e-05
-2.83344e-05
-3.16715e-05
-3.35389e-05
-3.69566e-05
-3.87705e-05
-4.11418e-05
-4.25873e-05
-4.36258e-05
-4.4335e-05
-4.44457e-05
-4.41569e-05
-4.34454e-05
-4.23588e-05
-4.09125e-05
-3.91943e-05
-3.72149e-05
-3.50605e-05
-3.2755e-05
-3.03371e-05
-2.78743e-05
-2.53792e-05
-2.28762e-05
-2.03982e-05
-1.79417e-05
-1.55272e-05
-1.31922e-05
-1.09207e-05
-8.73301e-06
-6.62128e-06
-4.59866e-06
-2.65962e-06
-8.04518e-07
9.68142e-07
2.65995e-06
4.27145e-06
5.81284e-06
7.28109e-06
8.67673e-06
1.00094e-05
1.12792e-05
1.24907e-05
1.36408e-05
1.47377e-05
1.57773e-05
1.67663e-05
1.77066e-05
1.85953e-05
1.94339e-05
2.02213e-05
2.09616e-05
2.16509e-05
2.2288e-05
2.28745e-05
2.34103e-05
2.38936e-05
2.43208e-05
2.46932e-05
2.50106e-05
2.52702e-05
2.54667e-05
2.56065e-05
2.5687e-05
2.57034e-05
2.56626e-05
2.55574e-05
2.53891e-05
2.5157e-05
2.48692e-05
2.45135e-05
2.4093e-05
2.36158e-05
2.30921e-05
2.25256e-05
2.18982e-05
2.12254e-05
2.05118e-05
1.97168e-05
1.89001e-05
1.80001e-05
1.7052e-05
1.60326e-05
1.49261e-05
1.37595e-05
1.24588e-05
1.10797e-05
9.56206e-06
7.91052e-06
6.11372e-06
4.12945e-06
2.00958e-06
-3.47232e-07
-2.92081e-06
-5.55625e-06
-8.57509e-06
-1.15424e-05
-1.47508e-05
-1.82384e-05
-2.17744e-05
-2.37888e-05
-2.832e-05
-3.16717e-05
-3.35105e-05
-3.69537e-05
-3.8775e-05
-4.11461e-05
-4.25985e-05
-4.36459e-05
-4.43582e-05
-4.44744e-05
-4.4189e-05
-4.34787e-05
-4.23929e-05
-4.0947e-05
-3.92271e-05
-3.72457e-05
-3.50901e-05
-3.27828e-05
-3.03617e-05
-2.78963e-05
-2.53992e-05
-2.28931e-05
-2.04125e-05
-1.79554e-05
-1.554e-05
-1.3204e-05
-1.09311e-05
-8.74142e-06
-6.62942e-06
-4.6061e-06
-2.6664e-06
-8.10702e-07
9.62507e-07
2.65482e-06
4.2668e-06
5.80813e-06
7.27731e-06
8.67337e-06
1.0006e-05
1.12762e-05
1.24875e-05
1.36375e-05
1.47348e-05
1.57754e-05
1.67642e-05
1.77049e-05
1.8594e-05
1.94325e-05
2.02209e-05
2.09617e-05
2.16508e-05
2.22889e-05
2.28763e-05
2.34127e-05
2.38965e-05
2.43241e-05
2.46976e-05
2.50155e-05
2.52757e-05
2.54732e-05
2.56135e-05
2.56942e-05
2.57111e-05
2.5671e-05
2.55665e-05
2.53988e-05
2.51663e-05
2.48781e-05
2.45231e-05
2.41039e-05
2.36279e-05
2.31049e-05
2.25334e-05
2.19062e-05
2.12335e-05
2.052e-05
1.97355e-05
1.89135e-05
1.80079e-05
1.70647e-05
1.60443e-05
1.49419e-05
1.37804e-05
1.24781e-05
1.11037e-05
9.58738e-06
7.93641e-06
6.14038e-06
4.1581e-06
2.03853e-06
-3.16665e-07
-2.88402e-06
-5.52356e-06
-8.53522e-06
-1.15133e-05
-1.47246e-05
-1.81988e-05
-2.17677e-05
-2.37532e-05
-2.83003e-05
-3.1672e-05
-3.34831e-05
-3.69564e-05
-3.8784e-05
-4.11497e-05
-4.26138e-05
-4.36712e-05
-4.43869e-05
-4.45083e-05
-4.42264e-05
-4.35177e-05
-4.24327e-05
-4.09871e-05
-3.92655e-05
-3.72824e-05
-3.51235e-05
-3.28133e-05
-3.03903e-05
-2.79218e-05
-2.54211e-05
-2.2912e-05
-2.04293e-05
-1.79706e-05
-1.55533e-05
-1.32157e-05
-1.09419e-05
-8.75091e-06
-6.63759e-06
-4.61309e-06
-2.67272e-06
-8.16502e-07
9.57767e-07
2.65055e-06
4.26299e-06
5.80472e-06
7.27381e-06
8.67026e-06
1.00038e-05
1.12738e-05
1.24851e-05
1.36359e-05
1.47331e-05
1.5774e-05
1.67632e-05
1.77039e-05
1.85934e-05
1.94322e-05
2.02215e-05
2.09622e-05
2.16518e-05
2.22914e-05
2.28793e-05
2.34161e-05
2.39004e-05
2.4329e-05
2.47035e-05
2.50214e-05
2.52822e-05
2.54812e-05
2.56222e-05
2.57034e-05
2.57215e-05
2.56809e-05
2.55766e-05
2.54095e-05
2.51772e-05
2.48892e-05
2.45349e-05
2.41153e-05
2.36415e-05
2.31146e-05
2.25415e-05
2.19197e-05
2.12469e-05
2.05342e-05
1.97443e-05
1.89222e-05
1.80262e-05
1.70822e-05
1.60613e-05
1.49634e-05
1.37954e-05
1.24929e-05
1.11291e-05
9.61741e-06
7.96261e-06
6.17306e-06
4.19169e-06
2.07363e-06
-2.74802e-07
-2.85037e-06
-5.48391e-06
-8.49514e-06
-1.1484e-05
-1.46866e-05
-1.81642e-05
-2.1761e-05
-2.3712e-05
-2.82805e-05
-3.16723e-05
-3.34616e-05
-3.69549e-05
-3.87964e-05
-4.11628e-05
-4.26328e-05
-4.37015e-05
-4.44208e-05
-4.45484e-05
-4.42707e-05
-4.3563e-05
-4.24776e-05
-4.10327e-05
-3.93092e-05
-3.7324e-05
-3.51623e-05
-3.28487e-05
-3.04222e-05
-2.79502e-05
-2.54456e-05
-2.29334e-05
-2.04481e-05
-1.79864e-05
-1.55682e-05
-1.32286e-05
-1.09523e-05
-8.7604e-06
-6.64581e-06
-4.62063e-06
-2.67864e-06
-8.21375e-07
9.52869e-07
2.64665e-06
4.26002e-06
5.80214e-06
7.27161e-06
8.66843e-06
1.00018e-05
1.12722e-05
1.24838e-05
1.3635e-05
1.47325e-05
1.57733e-05
1.67629e-05
1.77044e-05
1.85938e-05
1.94331e-05
2.02228e-05
2.09644e-05
2.16544e-05
2.22939e-05
2.28833e-05
2.34211e-05
2.39058e-05
2.43354e-05
2.47105e-05
2.50294e-05
2.52907e-05
2.54908e-05
2.56323e-05
2.57137e-05
2.57328e-05
2.56929e-05
2.55887e-05
2.54213e-05
2.51901e-05
2.49024e-05
2.45473e-05
2.41283e-05
2.36533e-05
2.31309e-05
2.25599e-05
2.19281e-05
2.12608e-05
2.05479e-05
1.97584e-05
1.89362e-05
1.8035e-05
1.71004e-05
1.60836e-05
1.4979e-05
1.38156e-05
1.25231e-05
1.11546e-05
9.64315e-06
7.99909e-06
6.20606e-06
4.22633e-06
2.115e-06
-2.32343e-07
-2.80666e-06
-5.44785e-06
-8.45432e-06
-1.14426e-05
-1.4653e-05
-1.81292e-05
-2.17435e-05
-2.36705e-05
-2.82605e-05
-3.16627e-05
-3.34404e-05
-3.69646e-05
-3.88105e-05
-4.11734e-05
-4.2656e-05
-4.37371e-05
-4.44603e-05
-4.45948e-05
-4.43215e-05
-4.36153e-05
-4.25298e-05
-4.10844e-05
-3.93589e-05
-3.73714e-05
-3.52054e-05
-3.2888e-05
-3.04586e-05
-2.79817e-05
-2.54731e-05
-2.29574e-05
-2.0468e-05
-1.80047e-05
-1.55841e-05
-1.32414e-05
-1.09641e-05
-8.77034e-06
-6.65401e-06
-4.62714e-06
-2.6841e-06
-8.25754e-07
9.48909e-07
2.64311e-06
4.25788e-06
5.80039e-06
7.26971e-06
8.66689e-06
1.00011e-05
1.12718e-05
1.24832e-05
1.36353e-05
1.47327e-05
1.57738e-05
1.67637e-05
1.77051e-05
1.85953e-05
1.9435e-05
2.02251e-05
2.09671e-05
2.16586e-05
2.2299e-05
2.28883e-05
2.34266e-05
2.39123e-05
2.43429e-05
2.47189e-05
2.50389e-05
2.53012e-05
2.55019e-05
2.5644e-05
2.57264e-05
2.57457e-05
2.57059e-05
2.56029e-05
2.54356e-05
2.52042e-05
2.49166e-05
2.45617e-05
2.4143e-05
2.36681e-05
2.31453e-05
2.2573e-05
2.19464e-05
2.12746e-05
2.05618e-05
1.97723e-05
1.89499e-05
1.80588e-05
1.71188e-05
1.60953e-05
1.50003e-05
1.38416e-05
1.25484e-05
1.11847e-05
9.67417e-06
8.03153e-06
6.24951e-06
4.27152e-06
2.15691e-06
-1.89309e-07
-2.76156e-06
-5.40086e-06
-8.4063e-06
-1.14012e-05
-1.46194e-05
-1.80927e-05
-2.17253e-05
-2.36336e-05
-2.82405e-05
-3.16634e-05
-3.34249e-05
-3.69603e-05
-3.883e-05
-4.11957e-05
-4.26847e-05
-4.37788e-05
-4.45062e-05
-4.46475e-05
-4.43783e-05
-4.36745e-05
-4.25893e-05
-4.11433e-05
-3.94147e-05
-3.74243e-05
-3.52544e-05
-3.29326e-05
-3.04983e-05
-2.8017e-05
-2.5504e-05
-2.29834e-05
-2.04903e-05
-1.8024e-05
-1.56009e-05
-1.32562e-05
-1.09764e-05
-8.7803e-06
-6.66218e-06
-4.63366e-06
-2.68954e-06
-8.29684e-07
9.46466e-07
2.64102e-06
4.25615e-06
5.79902e-06
7.26865e-06
8.66664e-06
1.00016e-05
1.12722e-05
1.24834e-05
1.36358e-05
1.4734e-05
1.57754e-05
1.67657e-05
1.77074e-05
1.85975e-05
1.9438e-05
2.0229e-05
2.09714e-05
2.16628e-05
2.23041e-05
2.28949e-05
2.34341e-05
2.39208e-05
2.43519e-05
2.47289e-05
2.50499e-05
2.53127e-05
2.55145e-05
2.56577e-05
2.57407e-05
2.57606e-05
2.57214e-05
2.5618e-05
2.54515e-05
2.52207e-05
2.49323e-05
2.45776e-05
2.41592e-05
2.36866e-05
2.31625e-05
2.25863e-05
2.19602e-05
2.12932e-05
2.05763e-05
1.97864e-05
1.897e-05
1.80778e-05
1.71364e-05
1.6118e-05
1.50276e-05
1.38671e-05
1.25789e-05
1.12149e-05
9.71041e-06
8.0743e-06
6.28897e-06
4.31627e-06
2.20357e-06
-1.40723e-07
-2.70576e-06
-5.35398e-06
-8.36327e-06
-1.13633e-05
-1.45743e-05
-1.80455e-05
-2.17013e-05
-2.35965e-05
-2.82205e-05
-3.16543e-05
-3.34104e-05
-3.69669e-05
-3.88524e-05
-4.12177e-05
-4.2718e-05
-4.38263e-05
-4.45581e-05
-4.47081e-05
-4.44433e-05
-4.37412e-05
-4.26562e-05
-4.1209e-05
-3.94775e-05
-3.7484e-05
-3.53088e-05
-3.29822e-05
-3.05435e-05
-2.80563e-05
-2.55374e-05
-2.30128e-05
-2.05151e-05
-1.80447e-05
-1.56197e-05
-1.32714e-05
-1.09886e-05
-8.79063e-06
-6.67085e-06
-4.64014e-06
-2.69449e-06
-8.33662e-07
9.43921e-07
2.6399e-06
4.25535e-06
5.79901e-06
7.26946e-06
8.66721e-06
1.0002e-05
1.12738e-05
1.24853e-05
1.36375e-05
1.4736e-05
1.57777e-05
1.67683e-05
1.77103e-05
1.86013e-05
1.94422e-05
2.02335e-05
2.09768e-05
2.1669e-05
2.23113e-05
2.29025e-05
2.34426e-05
2.39303e-05
2.43623e-05
2.47409e-05
2.50624e-05
2.53263e-05
2.55291e-05
2.56729e-05
2.57565e-05
2.57775e-05
2.57385e-05
2.56358e-05
2.54694e-05
2.52383e-05
2.49502e-05
2.45952e-05
2.4177e-05
2.37047e-05
2.31779e-05
2.26052e-05
2.19793e-05
2.13129e-05
2.05953e-05
1.98069e-05
1.89898e-05
1.80925e-05
1.71604e-05
1.61459e-05
1.50493e-05
1.38934e-05
1.26095e-05
1.12511e-05
9.75271e-06
8.11738e-06
6.33305e-06
4.36308e-06
2.25658e-06
-8.566e-08
-2.65432e-06
-5.30049e-06
-8.30436e-06
-1.13138e-05
-1.45323e-05
-1.79972e-05
-2.16768e-05
-2.35643e-05
-2.81956e-05
-3.16405e-05
-3.3406e-05
-3.69753e-05
-3.88762e-05
-4.12423e-05
-4.27569e-05
-4.38812e-05
-4.46175e-05
-4.47759e-05
-4.45165e-05
-4.38159e-05
-4.27305e-05
-4.12827e-05
-3.95483e-05
-3.75502e-05
-3.5369e-05
-3.30375e-05
-3.05936e-05
-2.81e-05
-2.55747e-05
-2.30446e-05
-2.05423e-05
-1.80679e-05
-1.56393e-05
-1.32875e-05
-1.10021e-05
-8.80087e-06
-6.67884e-06
-4.64652e-06
-2.69887e-06
-8.36593e-07
9.41882e-07
2.63869e-06
4.25598e-06
5.79941e-06
7.27013e-06
8.66965e-06
1.00047e-05
1.12757e-05
1.24875e-05
1.36404e-05
1.47387e-05
1.57812e-05
1.67726e-05
1.77144e-05
1.86062e-05
1.94474e-05
2.02391e-05
2.09832e-05
2.16764e-05
2.23195e-05
2.29116e-05
2.34527e-05
2.39418e-05
2.43749e-05
2.47539e-05
2.50769e-05
2.53414e-05
2.55457e-05
2.56906e-05
2.57748e-05
2.57965e-05
2.57576e-05
2.56551e-05
2.54889e-05
2.52591e-05
2.49702e-05
2.46149e-05
2.4197e-05
2.37215e-05
2.32024e-05
2.26294e-05
2.19986e-05
2.13273e-05
2.06154e-05
1.98316e-05
1.90092e-05
1.81171e-05
1.71795e-05
1.61683e-05
1.50813e-05
1.3925e-05
1.2646e-05
1.12924e-05
9.79435e-06
8.16065e-06
6.38327e-06
4.42037e-06
2.3109e-06
-3.0083e-08
-2.59045e-06
-5.24455e-06
-8.2481e-06
-1.12576e-05
-1.44802e-05
-1.79484e-05
-2.16521e-05
-2.35361e-05
-2.81658e-05
-3.16321e-05
-3.33974e-05
-3.69795e-05
-3.891e-05
-4.12729e-05
-4.28016e-05
-4.39424e-05
-4.46846e-05
-4.48521e-05
-4.45979e-05
-4.38998e-05
-4.28141e-05
-4.13647e-05
-3.96261e-05
-3.76243e-05
-3.54369e-05
-3.3098e-05
-3.06478e-05
-2.81479e-05
-2.56164e-05
-2.30803e-05
-2.05719e-05
-1.80929e-05
-1.56603e-05
-1.33049e-05
-1.1016e-05
-8.81144e-06
-6.68766e-06
-4.65228e-06
-2.70258e-06
-8.39443e-07
9.40903e-07
2.639e-06
4.25655e-06
5.80123e-06
7.27267e-06
8.67191e-06
1.00077e-05
1.12795e-05
1.24914e-05
1.36446e-05
1.47426e-05
1.57859e-05
1.67775e-05
1.77197e-05
1.86117e-05
1.94538e-05
2.02468e-05
2.09913e-05
2.16853e-05
2.23293e-05
2.29223e-05
2.34643e-05
2.39544e-05
2.43894e-05
2.47689e-05
2.5093e-05
2.5359e-05
2.55639e-05
2.57103e-05
2.57952e-05
2.58175e-05
2.57793e-05
2.56769e-05
2.55115e-05
2.52814e-05
2.49917e-05
2.46368e-05
2.42197e-05
2.3748e-05
2.32246e-05
2.26478e-05
2.20181e-05
2.13521e-05
2.06358e-05
1.9847e-05
1.90353e-05
1.81419e-05
1.72041e-05
1.61974e-05
1.51142e-05
1.39617e-05
1.2682e-05
1.13289e-05
9.84121e-06
8.21427e-06
6.43886e-06
4.47717e-06
2.37083e-06
3.70842e-08
-2.52078e-06
-5.18369e-06
-8.18004e-06
-1.12057e-05
-1.4436e-05
-1.78932e-05
-2.16107e-05
-2.35025e-05
-2.81412e-05
-3.16189e-05
-3.3405e-05
-3.69851e-05
-3.89397e-05
-4.13119e-05
-4.28528e-05
-4.40112e-05
-4.47599e-05
-4.49378e-05
-4.46886e-05
-4.39928e-05
-4.29068e-05
-4.14559e-05
-3.97129e-05
-3.77057e-05
-3.55116e-05
-3.31658e-05
-3.07087e-05
-2.82006e-05
-2.56612e-05
-2.31192e-05
-2.06037e-05
-1.81196e-05
-1.56835e-05
-1.33229e-05
-1.10307e-05
-8.82269e-06
-6.6958e-06
-4.65837e-06
-2.70618e-06
-8.40665e-07
9.40466e-07
2.63985e-06
4.25914e-06
5.804e-06
7.27563e-06
8.67608e-06
1.00115e-05
1.1284e-05
1.24966e-05
1.36495e-05
1.47482e-05
1.57917e-05
1.67836e-05
1.77265e-05
1.86189e-05
1.94617e-05
2.0255e-05
2.10004e-05
2.16958e-05
2.23401e-05
2.29346e-05
2.34785e-05
2.39695e-05
2.4405e-05
2.47865e-05
2.51121e-05
2.53786e-05
2.55846e-05
2.57316e-05
2.58181e-05
2.58416e-05
2.5803e-05
2.57009e-05
2.55357e-05
2.53059e-05
2.50165e-05
2.46609e-05
2.42436e-05
2.37738e-05
2.32445e-05
2.26724e-05
2.2048e-05
2.13725e-05
2.06609e-05
1.98779e-05
1.90558e-05
1.81669e-05
1.72339e-05
1.62259e-05
1.51473e-05
1.39936e-05
1.27239e-05
1.13764e-05
9.88998e-06
8.26901e-06
6.49573e-06
4.5463e-06
2.44231e-06
1.05809e-07
-2.45043e-06
-5.11511e-06
-8.11107e-06
-1.11429e-05
-1.43751e-05
-1.78362e-05
-2.15729e-05
-2.34737e-05
-2.81068e-05
-3.16007e-05
-3.34082e-05
-3.69985e-05
-3.8978e-05
-4.13522e-05
-4.2911e-05
-4.40882e-05
-4.48444e-05
-4.50326e-05
-4.47892e-05
-4.40958e-05
-4.30097e-05
-4.15571e-05
-3.98085e-05
-3.77956e-05
-3.55943e-05
-3.32401e-05
-3.07747e-05
-2.82585e-05
-2.57112e-05
-2.31613e-05
-2.06387e-05
-1.8149e-05
-1.57079e-05
-1.33422e-05
-1.1046e-05
-8.83365e-06
-6.7036e-06
-4.66366e-06
-2.70911e-06
-8.4172e-07
9.41162e-07
2.64176e-06
4.26222e-06
5.80827e-06
7.28003e-06
8.68112e-06
1.00177e-05
1.12898e-05
1.25021e-05
1.36562e-05
1.47551e-05
1.57988e-05
1.67914e-05
1.77345e-05
1.86277e-05
1.94708e-05
2.02649e-05
2.10116e-05
2.17078e-05
2.23536e-05
2.29494e-05
2.34937e-05
2.39857e-05
2.44236e-05
2.48062e-05
2.51322e-05
2.54008e-05
2.56084e-05
2.5756e-05
2.58432e-05
2.58673e-05
2.583e-05
2.57286e-05
2.55626e-05
2.53331e-05
2.5043e-05
2.46872e-05
2.42713e-05
2.37978e-05
2.32721e-05
2.27027e-05
2.20731e-05
2.13983e-05
2.06824e-05
1.9899e-05
1.90818e-05
1.81979e-05
1.7264e-05
1.62605e-05
1.51857e-05
1.40356e-05
1.27719e-05
1.14242e-05
9.94407e-06
8.33e-06
6.56299e-06
4.61688e-06
2.51328e-06
1.80241e-07
-2.36836e-06
-5.04066e-06
-8.04031e-06
-1.10765e-05
-1.43134e-05
-1.77683e-05
-2.15296e-05
-2.34487e-05
-2.80725e-05
-3.15826e-05
-3.34123e-05
-3.70128e-05
-3.90238e-05
-4.14009e-05
-4.29764e-05
-4.41737e-05
-4.49378e-05
-4.51378e-05
-4.49008e-05
-4.42103e-05
-4.31232e-05
-4.16678e-05
-3.99143e-05
-3.78951e-05
-3.56844e-05
-3.33213e-05
-3.08472e-05
-2.83216e-05
-2.57652e-05
-2.3207e-05
-2.06768e-05
-1.81799e-05
-1.57338e-05
-1.33625e-05
-1.10618e-05
-8.84579e-06
-6.71154e-06
-4.66816e-06
-2.71121e-06
-8.41569e-07
9.43016e-07
2.64529e-06
4.26686e-06
5.813e-06
7.2859e-06
8.68805e-06
1.00247e-05
1.1297e-05
1.25099e-05
1.36641e-05
1.47631e-05
1.58075e-05
1.68009e-05
1.77442e-05
1.86376e-05
1.9482e-05
2.02774e-05
2.10244e-05
2.17214e-05
2.23685e-05
2.29658e-05
2.3512e-05
2.40049e-05
2.44438e-05
2.48284e-05
2.5156e-05
2.54251e-05
2.56343e-05
2.57835e-05
2.58708e-05
2.58962e-05
2.5859e-05
2.57579e-05
2.55932e-05
2.5363e-05
2.50722e-05
2.47168e-05
2.43003e-05
2.38293e-05
2.3302e-05
2.27282e-05
2.21039e-05
2.14294e-05
2.07087e-05
1.9926e-05
1.91094e-05
1.823e-05
1.73002e-05
1.62962e-05
1.52192e-05
1.40796e-05
1.28243e-05
1.14771e-05
1.00034e-05
8.39132e-06
6.63161e-06
4.69305e-06
2.59186e-06
2.66439e-07
-2.2834e-06