/*--------------------------------*- C++ -*----------------------------------*\
| =========                 |                                                 |
| \\      /  F ield         | OpenFOAM: The Open Source CFD Toolbox           |
|  \\    /   O peration     | Version:  2006                                  |
|   \\  /    A nd           | Website:  www.openfoam.com                      |
|    \\/     M anipulation  |                                                 |
\*---------------------------------------------------------------------------*/
FoamFile
{
    version     2.0;
    format      ascii;
    class       volScalarField;
    location    "20000";
    object      I1_16;
}
// * * * * * * * * * * * * * * * * * * * * * * * * * * * * * * * * * * * * * //

dimensions      [0 0 0 0 0 0 0];


internalField   nonuniform List<scalar> 
14751
(
-0.0378879
0.00179384
-0.0487048
0.0104263
0.0261778
0.0989433
0.828856
0.443919
0.177708
0.120767
0.102901
0.0958004
0.0814026
0.0751752
0.0717248
0.0687032
0.0672642
0.0627835
0.0626645
0.0624986
0.0603946
0.0584219
0.0604199
0.0598453
0.0572348
0.0577501
0.0589612
0.0572734
0.0592502
0.0616549
0.0570093
0.0600149
0.0592662
0.0630758
0.0577545
0.0621638
0.0616764
0.0671998
0.0600272
0.0591481
0.0578225
0.0654666
0.0641086
0.0622509
0.0595038
0.0751916
0.0503607
0.0761795
0.0778523
0.115307
-0.0622083
-0.0673985
-0.0686337
-0.0684534
-0.0684456
-0.0548978
-0.0566832
-0.067186
-0.0669598
-0.0592315
-0.0597695
-0.060205
-0.0602291
-0.0598866
-0.059916
-0.0599304
-0.0597653
-0.0555675
-0.0555117
-0.0556593
-0.0593767
-0.0567956
-0.0546202
-0.0526733
-0.0792726
-0.0494416
-0.0478259
-0.0727468
-0.0455766
-0.0699617
-0.0443512
-0.0442555
-0.0672742
-0.0671674
-0.0441361
-0.0443567
-0.0679542
-0.068954
-0.0698494
-0.0482083
-0.0500903
-0.0521446
-0.0567936
-0.058256
-0.0342605
-0.0372426
-0.0480882
-0.03526
-0.0605823
-0.0590363
-0.0100032
-0.0404545
0.489856
0.201846
0.133869
0.126431
0.121769
0.118908
0.116505
0.116472
0.11751
0.115926
0.115326
0.115612
0.117317
0.11711
0.117561
0.118084
0.119893
0.119917
0.121708
0.122581
0.12388
0.124118
0.125394
0.12803
0.128343
0.12993
0.132252
0.130813
0.134451
0.138332
0.139055
0.138723
0.139621
0.140054
0.147511
0.147446
0.13986
0.139316
0.140177
0.150186
0.150809
0.131775
0.152388
0.115024
0.099203
0.00320029
-0.32929
-0.206649
-0.215109
-0.172129
-0.183301
-0.175858
-0.155435
-0.163779
-0.170819
-0.167103
-0.161968
-0.159556
-0.156758
-0.154393
-0.152191
-0.150108
-0.153274
-0.151081
-0.144261
-0.146589
-0.141372
-0.156352
-0.111999
-0.141142
-0.13457
-0.165716
-0.123363
-0.117997
-0.148848
-0.140586
-0.142211
-0.108719
-0.109801
-0.140816
-0.142189
-0.115768
-0.118043
-0.122554
-0.124708
-0.12647
-0.102734
-0.104974
-0.132569
-0.11047
-0.111174
-0.0877288
-0.0958676
-0.0788854
-0.114422
-0.123841
-0.00194946
0.498641
2.32213
0.439765
0.302805
0.235717
0.220057
0.206978
0.194508
0.191068
0.184326
0.181622
0.181558
0.177612
0.176433
0.178278
0.176358
0.178272
0.17585
0.178357
0.178135
0.182376
0.182129
0.183089
0.186967
0.189312
0.1907
0.193809
0.194575
0.196661
0.200742
0.200801
0.202186
0.203024
0.206144
0.200677
0.203859
0.198252
0.202909
0.205554
0.19733
0.184485
0.188272
0.169594
0.132721
0.0715613
-0.00447788
-1.14256
-0.838152
-0.499514
-0.414458
-0.37548
-0.326013
-0.315252
-0.305831
-0.297459
-0.292515
-0.286261
-0.272
-0.277411
-0.265621
-0.261931
-0.258861
-0.249437
-0.247032
-0.239587
-0.237352
-0.235596
-0.22867
-0.226674
-0.246294
-0.181908
-0.219893
-0.208358
-0.197763
-0.229611
-0.219503
-0.174418
-0.210473
-0.16895
-0.169512
-0.174251
-0.180087
-0.15397
-0.162466
-0.170174
-0.175073
-0.150234
-0.155801
-0.161765
-0.133946
-0.170731
-0.138419
-0.137157
-0.147508
-0.11821
-0.095908
-0.164894
-0.00777053
0.195338
1.19325
0.861365
0.520549
0.413511
0.339484
0.313219
0.292883
0.273902
0.262243
0.253599
0.249244
0.243133
0.240199
0.23752
0.237056
0.236354
0.235285
0.23514
0.236738
0.237022
0.238943
0.24213
0.246697
0.248761
0.249845
0.254023
0.256835
0.257892
0.261166
0.260813
0.261985
0.257341
0.254175
0.249983
0.255038
0.241877
0.223936
0.214763
0.205397
0.170737
0.146032
0.0445889
-0.0917147
-0.314395
-1.3189
-3.59345
-1.26001
-0.890971
-0.706531
-0.662637
-0.585736
-0.55369
-0.527096
-0.508128
-0.49169
-0.466058
-0.44449
-0.435576
-0.418044
-0.403309
-0.397548
-0.38533
-0.373745
-0.36367
-0.347231
-0.338684
-0.331221
-0.317048
-0.310557
-0.31007
-0.291734
-0.275707
-0.260822
-0.247419
-0.282134
-0.269769
-0.259119
-0.252864
-0.253409
-0.2555
-0.22666
-0.237685
-0.212635
-0.227373
-0.2062
-0.221826
-0.197214
-0.173115
-0.183604
-0.152454
-0.156046
-0.118671
-0.114563
-0.0727623
-0.0796811
-0.0459077
-0.0717891
0.716966
3.04089
0.863001
0.712063
0.460937
0.443717
0.380966
0.34996
0.331293
0.30924
0.296191
0.286422
0.278407
0.273216
0.269572
0.266114
0.2642
0.261349
0.258615
0.257792
0.257078
0.264461
0.274092
0.277845
0.280332
0.283465
0.282933
0.285828
0.287427
0.283265
0.280361
0.278714
0.272665
0.272957
0.253018
0.245804
0.228262
0.205396
0.163954
0.137624
0.0446743
-0.0514825
-0.246205
-0.653705
-1.90079
-7.36319
-2.1809
-1.43335
-1.11056
-0.965311
-0.85476
-0.797449
-0.739052
-0.694318
-0.669117
-0.630604
-0.605354
-0.576977
-0.55077
-0.535687
-0.508153
-0.491561
-0.470113
-0.450912
-0.438811
-0.417627
-0.403192
-0.385782
-0.369975
-0.358402
-0.331374
-0.314395
-0.297086
-0.28211
-0.268583
-0.256834
-0.246811
-0.236942
-0.265091
-0.26036
-0.232323
-0.236775
-0.215863
-0.200078
-0.216283
-0.204861
-0.191189
-0.177034
-0.163239
-0.145443
-0.127414
-0.135791
-0.107245
-0.0687076
-0.0617314
0.0395373
0.0434102
0.200167
0.120794
4.61512
1.01655
0.681737
0.539744
0.427283
0.41646
0.374688
0.348518
0.332185
0.315297
0.304454
0.294063
0.28822
0.283575
0.280431
0.276885
0.275712
0.273661
0.271212
0.269329
0.267646
0.273352
0.283009
0.283047
0.281523
0.281025
0.279869
0.275946
0.270636
0.266205
0.258814
0.251655
0.23566
0.221802
0.205142
0.172228
0.128456
0.0879398
0.00826281
-0.112864
-0.301504
-0.709192
-1.94323
-7.11958
-2.41259
-1.5204
-1.20259
-1.0211
-0.903104
-0.82922
-0.781979
-0.723372
-0.691184
-0.658231
-0.625154
-0.597861
-0.574248
-0.549766
-0.527586
-0.504452
-0.48373
-0.469295
-0.448909
-0.428441
-0.41549
-0.39546
-0.382352
-0.365306
-0.353088
-0.336424
-0.315774
-0.277717
-0.287699
-0.254032
-0.265547
-0.25649
-0.227812
-0.220827
-0.217591
-0.215091
-0.197078
-0.201809
-0.191839
-0.18312
-0.177899
-0.153174
-0.148793
-0.143747
-0.13661
-0.128577
-0.0949823
-0.079013
-0.0282964
0.00801834
0.0224695
0.134985
0.28767
0.63893
0.58546
2.12884
0.555698
0.495649
0.433454
0.358143
0.34439
0.319263
0.29913
0.286424
0.274283
0.265085
0.256949
0.251757
0.246004
0.242333
0.237743
0.235705
0.232327
0.22906
0.22667
0.221762
0.220638
0.219958
0.215269
0.211911
0.206292
0.199884
0.192562
0.183502
0.174523
0.162498
0.148886
0.130239
0.107353
0.078636
0.0357928
-0.0184856
-0.1124
-0.248154
-0.511599
-1.22818
-4.48606
-2.23349
-1.30208
-0.969574
-0.797234
-0.707717
-0.639352
-0.588576
-0.551645
-0.523165
-0.493515
-0.471977
-0.451505
-0.431673
-0.41482
-0.397345
-0.382777
-0.367876
-0.35276
-0.339028
-0.32749
-0.315334
-0.301395
-0.29024
-0.278712
-0.268544
-0.259377
-0.249932
-0.240047
-0.230361
-0.21524
-0.208774
-0.201643
-0.196689
-0.191874
-0.17594
-0.172464
-0.160121
-0.159708
-0.163052
-0.156099
-0.152198
-0.138777
-0.138088
-0.126623
-0.114468
-0.101382
-0.100527
-0.0695115
-0.0480787
-0.0192759
0.00155286
0.0818115
0.112123
0.303661
0.584861
2.08513
1.65639
0.97533
0.313196
0.308103
0.274036
0.23929
0.226975
0.211349
0.197528
0.187866
0.178439
0.171
0.163943
0.158649
0.153183
0.148571
0.144277
0.140274
0.135771
0.131717
0.127254
0.122185
0.117429
0.113585
0.10885
0.103214
0.0978841
0.0909833
0.0839679
0.0754833
0.0649303
0.0538998
0.0381099
0.0200396
-0.00507016
-0.0391114
-0.0850637
-0.156621
-0.287513
-0.56672
-1.53966
-2.07402
-0.958665
-0.650148
-0.516211
-0.43577
-0.387399
-0.349643
-0.323595
-0.301809
-0.283166
-0.266779
-0.254398
-0.240429
-0.229687
-0.219128
-0.209945
-0.200182
-0.191542
-0.183877
-0.176393
-0.168189
-0.160892
-0.153693
-0.146621
-0.140165
-0.134463
-0.128624
-0.123441
-0.118225
-0.113413
-0.108569
-0.103141
-0.100016
-0.0977974
-0.0910094
-0.0849998
-0.0884089
-0.0830257
-0.0785364
-0.0746114
-0.0769819
-0.0704431
-0.07526
-0.0658316
-0.0623968
-0.0642881
-0.0548879
-0.0502334
-0.0376911
-0.0288218
-0.00875306
0.0197337
0.0389045
0.106533
0.19905
0.510917
1.54408
1.12898
0.513629
0.489524
0.131402
0.131688
0.122189
0.108235
0.100519
0.0938658
0.0870571
0.0821244
0.0774685
0.0737074
0.0700377
0.0672207
0.0642378
0.0615839
0.0592042
0.0564119
0.053879
0.0509022
0.0476748
0.0444205
0.0410346
0.0383714
0.0347394
0.031048
0.0269637
0.0225445
0.017327
0.0114126
0.00401474
-0.00434866
-0.016136
-0.0299729
-0.0508227
-0.0789815
-0.124173
-0.210194
-0.414395
-1.11211
-0.677278
-0.379105
-0.272001
-0.216377
-0.183247
-0.159233
-0.143603
-0.130183
-0.119671
-0.111202
-0.103651
-0.0962986
-0.0904107
-0.0845764
-0.0794048
-0.0744623
-0.0697713
-0.0655406
-0.0612977
-0.0571844
-0.0537005
-0.0498145
-0.0464306
-0.0432318
-0.0401725
-0.0374633
-0.0347945
-0.032362
-0.0300057
-0.0279477
-0.0258763
-0.0239698
-0.022081
-0.0209544
-0.0187158
-0.0179394
-0.0167626
-0.0163014
-0.0159005
-0.0152898
-0.0147688
-0.0146121
-0.0139678
-0.0141799
-0.0138712
-0.012919
-0.0126337
-0.0111218
-0.00901296
-0.00576556
-0.00267698
0.00683849
0.0197658
0.0427046
0.0920406
0.20684
0.783162
0.512638
0.277487
0.172791
0.186639
0.00405112
0.00535088
0.0060067
0.00549217
0.00448758
0.003395
0.00269576
0.00202735
0.00160538
0.00134901
0.00116401
0.00103866
0.000942318
0.000745647
0.000494521
0.000140259
-0.000289999
-0.00088423
-0.00164164
-0.00244688
-0.00322951
-0.00396574
-0.00476278
-0.00552641
-0.0064553
-0.00733335
-0.00849572
-0.00970846
-0.0111249
-0.0128528
-0.015032
-0.0177452
-0.0217871
-0.0278676
-0.038875
-0.0669959
-0.112136
-0.0493814
-0.0228798
-0.0123734
-0.00615813
-0.00184869
0.00124604
0.00384012
0.00602184
0.00795131
0.00976895
0.0114511
0.0130382
0.0145655
0.0160452
0.017451
0.0187691
0.0200274
0.0210973
0.0221926
0.0231831
0.0239357
0.0247327
0.0252963
0.0257442
0.026183
0.0264601
0.0267016
0.02672
0.0266583
0.0265858
0.0266531
0.0264045
0.0259362
0.0266168
0.0240756
0.0229224
0.0234089
0.0239174
0.0209133
0.0215145
0.0204199
0.0195652
0.0171927
0.017065
0.0134089
0.0121348
0.0110975
0.00560925
0.00218679
-0.00423282
-0.00879742
-0.0172919
-0.0249231
-0.038914
-0.0623201
-0.109595
-0.239526
-0.106993
-0.0448923
-0.0177029
-0.00197829
-0.00110821
-0.0848491
-0.083664
-0.0758841
-0.0683924
-0.0647996
-0.0621623
-0.0583522
-0.0557402
-0.0528946
-0.0501846
-0.0475322
-0.0451526
-0.0428663
-0.040621
-0.0384599
-0.0364327
-0.0344746
-0.0324176
-0.0304183
-0.028325
-0.0261661
-0.0237507
-0.0211491
-0.017979
-0.0144288
-0.0102106
-0.00498823
0.00142096
0.00931798
0.0202636
0.0352228
0.0577639
0.0953184
0.168074
0.351175
0.623186
0.373791
0.246988
0.189729
0.159372
0.140392
0.12699
0.117864
0.11097
0.10556
0.101415
0.0977123
0.0947847
0.0922972
0.0902935
0.0883234
0.0867118
0.0849946
0.0833616
0.0819645
0.0804094
0.0788701
0.0770347
0.0756473
0.0737244
0.0719508
0.070087
0.0681296
0.0659576
0.0641702
0.0622403
0.0601059
0.0582648
0.0562293
0.0536876
0.0519011
0.0466539
0.0470597
0.0446607
0.0452254
0.0428652
0.0373544
0.0355707
0.0340213
0.0300427
0.0303157
0.0201545
0.0180743
0.01223
0.00142284
-0.00634625
-0.0212668
-0.0463399
-0.0738912
-0.108205
-0.191416
-0.365478
-0.968073
-0.667211
-0.320439
-0.228679
-0.165051
-0.112522
-0.120726
-0.148877
-0.145811
-0.13444
-0.124193
-0.11548
-0.110636
-0.10341
-0.098405
-0.0929152
-0.0879814
-0.0828723
-0.0784222
-0.0736761
-0.0692147
-0.0646995
-0.0601535
-0.0556089
-0.0506766
-0.0457304
-0.040054
-0.0345419
-0.0282887
-0.0213482
-0.0130912
-0.00356616
0.00770764
0.0216851
0.0391913
0.0620109
0.0937976
0.140603
0.216356
0.35683
0.681725
1.14236
0.753237
0.49418
0.373289
0.307106
0.264682
0.236611
0.215176
0.199638
0.186856
0.176291
0.168263
0.161078
0.154548
0.149601
0.144478
0.140127
0.135747
0.131883
0.128006
0.124313
0.120675
0.116875
0.113039
0.109615
0.105582
0.102098
0.0979437
0.0940108
0.0902443
0.0869841
0.0832329
0.0792711
0.0760665
0.0722797
0.0681537
0.0636582
0.0604542
0.0574017
0.0505322
0.0474553
0.0483859
0.0454543
0.0391773
0.0375382
0.0326639
0.0238491
0.0202841
0.00755777
-0.00641462
-0.0163036
-0.0348416
-0.0595037
-0.1028
-0.167656
-0.282207
-0.52529
-1.20611
-1.11498
-0.612593
-0.39718
-0.314014
-0.251867
-0.191098
-0.197766
-0.19903
-0.190839
-0.180136
-0.165481
-0.154042
-0.147748
-0.138202
-0.131105
-0.123788
-0.116808
-0.109643
-0.103083
-0.0962183
-0.0893995
-0.0826478
-0.0754889
-0.0679891
-0.059942
-0.051649
-0.0421102
-0.032379
-0.0215889
-0.00952173
0.00526881
0.0221928
0.0430503
0.0682501
0.101376
0.146929
0.211026
0.313669
0.494328
0.872428
1.47894
1.15766
0.76103
0.563943
0.453359
0.386336
0.340279
0.306659
0.281444
0.261186
0.244203
0.230979
0.218912
0.209046
0.200348
0.192569
0.184961
0.178699
0.171815
0.166069
0.160328
0.154479
0.14882
0.143424
0.137988
0.132378
0.126858
0.121681
0.116143
0.110513
0.105457
0.0999648
0.094619
0.0894541
0.0851335
0.0797204
0.0740487
0.067574
0.0641293
0.0606069
0.0531322
0.0496353
0.0465392
0.0391547
0.0365654
0.0299128
0.0242736
0.014022
0.0102072
-0.011161
-0.0284921
-0.0487594
-0.0833145
-0.130334
-0.188954
-0.316576
-0.555438
-1.19987
-1.71076
-0.87412
-0.609917
-0.436225
-0.367749
-0.306398
-0.243258
-0.249608
-0.237676
-0.224574
-0.215942
-0.195663
-0.18479
-0.177699
-0.165945
-0.157544
-0.14853
-0.139694
-0.130749
-0.122236
-0.113173
-0.103913
-0.094671
-0.0846062
-0.0742837
-0.0627149
-0.0505402
-0.0370178
-0.0224508
-0.00648355
0.011825
0.0341083
0.0599621
0.0929345
0.133653
0.187779
0.264021
0.378568
0.572254
0.939419
1.58943
1.59598
1.07887
0.782857
0.617579
0.516691
0.447272
0.398485
0.361697
0.332849
0.310113
0.289636
0.273681
0.259066
0.24713
0.235905
0.22542
0.216624
0.208074
0.199359
0.191568
0.183793
0.17673
0.169226
0.162091
0.155449
0.148594
0.141076
0.1344
0.127432
0.120436
0.114027
0.107187
0.100543
0.0944052
0.088421
0.0817878
0.0755298
0.0665505
0.0628802
0.0594575
0.0518316
0.0485184
0.0408789
0.0328227
0.0303241
0.0184552
0.0122568
0.00137922
-0.015461
-0.0268801
-0.0467731
-0.0871867
-0.131124
-0.194826
-0.308947
-0.499573
-0.97106
-1.8608
-1.27826
-0.805132
-0.612909
-0.457172
-0.407912
-0.348068
-0.280458
-0.285861
-0.270864
-0.253201
-0.24462
-0.223617
-0.210294
-0.202619
-0.189319
-0.1797
-0.168968
-0.15865
-0.14759
-0.137391
-0.126198
-0.114493
-0.102521
-0.0892657
-0.07585
-0.0605968
-0.0442805
-0.0260346
-0.00673057
0.0158503
0.041289
0.0717789
0.108915
0.154743
0.214296
0.296021
0.413335
0.60001
0.92032
1.50039
1.9292
1.47599
1.05055
0.810051
0.662456
0.566392
0.497348
0.446404
0.406896
0.374745
0.348621
0.326723
0.307766
0.290928
0.276822
0.263537
0.251414
0.24042
0.230178
0.220164
0.210447
0.201358
0.192629
0.18347
0.175185
0.16673
0.158874
0.149777
0.142175
0.133621
0.125544
0.117695
0.110125
0.102821
0.0950054
0.0880232
0.0807118
0.0738688
0.0662033
0.0590628
0.0516163
0.0481303
0.0364715
0.0330787
0.0254437
0.0226548
0.0105953
-0.000932814
-0.0181393
-0.0303151
-0.0491992
-0.0791347
-0.117563
-0.179947
-0.273224
-0.431241
-0.74073
-1.49839
-1.77359
-1.08577
-0.756613
-0.602875
-0.484146
-0.430019
-0.373145
-0.315829
-0.315317
-0.297482
-0.278658
-0.267657
-0.246675
-0.23215
-0.223987
-0.209497
-0.198647
-0.18658
-0.17442
-0.161548
-0.149147
-0.135904
-0.121689
-0.106978
-0.0905243
-0.0738034
-0.0545468
-0.0339965
-0.0111837
0.0138707
0.0428881
0.0755314
0.115982
0.164613
0.225958
0.307403
0.419852
0.586494
0.858451
1.31541
1.92799
1.88913
1.39592
1.04719
0.838539
0.70144
0.607703
0.537945
0.484708
0.443144
0.408541
0.38042
0.35564
0.334884
0.316084
0.299589
0.284462
0.271048
0.257902
0.245867
0.234451
0.223343
0.213018
0.202916
0.192801
0.183156
0.173134
0.163784
0.154031
0.14525
0.135858
0.127177
0.118247
0.109689
0.101626
0.093117
0.0855175
0.0779247
0.0700613
0.0637183
0.0530906
0.0461503
0.0392653
0.0319257
0.0248243
0.0171364
0.0100778
-0.00169913
-0.0135081
-0.0253409
-0.0432119
-0.0699643
-0.109697
-0.153047
-0.224846
-0.349624
-0.568153
-1.01539
-1.77524
-1.48183
-0.998458
-0.72415
-0.609868
-0.501907
-0.444071
-0.394758
-0.343339
-0.334283
-0.320664
-0.296548
-0.288122
-0.267296
-0.251252
-0.242408
-0.226589
-0.214666
-0.201086
-0.187497
-0.172931
-0.158296
-0.142575
-0.125948
-0.108468
-0.0889248
-0.0687997
-0.045689
-0.0209752
0.00680301
0.0376394
0.0727009
0.11325
0.163464
0.223945
0.302254
0.406436
0.552347
0.771887
1.12401
1.66655
2.07616
1.78715
1.34775
1.05178
0.862688
0.733323
0.63991
0.568566
0.514132
0.470929
0.434203
0.403517
0.376821
0.354053
0.333415
0.315364
0.29867
0.283098
0.268945
0.255633
0.242742
0.230569
0.218869
0.207565
0.196736
0.185764
0.17516
0.164762
0.15471
0.144539
0.134553
0.125175
0.11585
0.106879
0.0979016
0.0893652
0.0813523
0.0732626
0.0655177
0.0560512
0.0498506
0.0436488
0.033695
0.0273337
0.0205695
0.0138795
0.00289298
-0.012758
-0.0193959
-0.0357109
-0.0594477
-0.0863746
-0.127195
-0.18193
-0.270664
-0.411748
-0.686176
-1.22799
-1.71956
-1.3015
-0.938374
-0.71828
-0.605751
-0.507155
-0.461622
-0.413469
-0.367304
-0.350586
-0.340796
-0.312004
-0.306072
-0.285498
-0.267188
-0.257802
-0.240793
-0.227849
-0.212919
-0.197795
-0.181544
-0.164913
-0.14691
-0.127896
-0.107662
-0.0851133
-0.061638
-0.0347575
-0.00604848
0.0266674
0.0622043
0.104237
0.151896
0.210805
0.283925
0.377216
0.501936
0.680234
0.945464
1.35279
1.87687
2.05551
1.69984
1.32004
1.0569
0.878892
0.752772
0.660855
0.590523
0.533604
0.488557
0.450451
0.417777
0.389525
0.365062
0.343119
0.32326
0.305026
0.288534
0.272951
0.258682
0.244605
0.231811
0.21869
0.206863
0.194964
0.183214
0.172168
0.161389
0.150638
0.140257
0.130185
0.120029
0.110663
0.101397
0.0924024
0.0837072
0.075765
0.0677135
0.0600502
0.0508238
0.0454308
0.0370239
0.0314873
0.0192449
0.016816
0.00351069
-0.00279085
-0.0131048
-0.0275684
-0.04801
-0.0658544
-0.0979457
-0.138496
-0.20095
-0.302404
-0.466564
-0.749047
-1.29407
-1.55012
-1.17689
-0.881071
-0.701126
-0.603588
-0.511783
-0.472158
-0.429125
-0.385073
-0.364539
-0.357029
-0.326956
-0.318694
-0.296606
-0.280251
-0.270214
-0.252192
-0.238152
-0.222003
-0.205167
-0.187136
-0.168722
-0.148795
-0.127407
-0.10441
-0.0793144
-0.052988
-0.022644
0.0100194
0.0466597
0.0867603
0.134514
0.188574
0.255523
0.33845
0.444811
0.587275
0.786431
1.0827
1.5055
1.93794
1.96355
1.62188
1.29197
1.05204
0.883961
0.762019
0.670463
0.599431
0.541866
0.495335
0.455775
0.422961
0.392924
0.367173
0.344163
0.322995
0.303956
0.286485
0.270086
0.254636
0.239967
0.226297
0.213022
0.200389
0.188034
0.17609
0.164612
0.153724
0.142533
0.132243
0.121875
0.112033
0.102704
0.0935534
0.0849329
0.0761657
0.0686242
0.0607748
0.0534721
0.0473903
0.0378359
0.0305488
0.0231265
0.0181589
0.00732925
-0.00137756
-0.0102515
-0.019535
-0.033077
-0.0515703
-0.0727936
-0.103071
-0.147728
-0.216276
-0.31725
-0.482912
-0.790718
-1.26621
-1.39634
-1.07536
-0.838009
-0.679077
-0.600992
-0.519464
-0.479499
-0.437755
-0.396111
-0.370416
-0.369057
-0.333846
-0.329499
-0.30632
-0.289807
-0.278917
-0.260053
-0.244828
-0.2275
-0.209359
-0.189735
-0.169658
-0.147836
-0.124325
-0.0993241
-0.0717252
-0.0427386
-0.00993309
0.0255314
0.0656587
0.109809
0.161544
0.22068
0.293867
0.382703
0.499025
0.652396
0.865031
1.17104
1.56613
1.89452
1.8472
1.54064
1.24904
1.0318
0.874458
0.756599
0.666726
0.595531
0.539021
0.490685
0.450414
0.416739
0.386093
0.359418
0.335671
0.314246
0.294407
0.276276
0.259529
0.243456
0.228611
0.214359
0.201201
0.188199
0.175598
0.16406
0.152454
0.141813
0.130847
0.120615
0.110595
0.101224
0.0920843
0.0836213
0.0751682
0.067155
0.0600414
0.0527328
0.0457205
0.0384895
0.030424
0.0245115
0.0183346
0.0120906
0.00523336
-0.00191616
-0.0122242
-0.0232888
-0.0318976
-0.051688
-0.0746124
-0.106755
-0.149001
-0.212978
-0.315254
-0.481995
-0.779808
-1.18802
-1.24785
-1.00897
-0.810464
-0.663206
-0.594344
-0.514101
-0.479071
-0.439226
-0.408675
-0.375329
-0.375391
-0.33862
-0.333923
-0.313362
-0.294926
-0.283176
-0.263708
-0.247743
-0.229139
-0.209842
-0.18909
-0.16745
-0.144098
-0.119014
-0.0925378
-0.0629287
-0.0319821
0.00273083
0.0404022
0.0825204
0.129256
0.183834
0.245305
0.32193
0.414914
0.534991
0.691653
0.906142
1.19603
1.54701
1.7859
1.71298
1.44844
1.19328
0.993168
0.844825
0.733287
0.647684
0.57846
0.520391
0.473597
0.433679
0.398897
0.368664
0.342014
0.317605
0.296411
0.276258
0.258226
0.240962
0.225434
0.210693
0.196487
0.183068
0.170615
0.158357
0.147037
0.135806
0.125452
0.115352
0.105764
0.0964017
0.0876345
0.0793462
0.071495
0.0639303
0.0569857
0.0503112
0.0441926
0.037796
0.0300489
0.0272111
0.0191036
0.0143213
0.00729294
0.00199436
-0.00602963
-0.0123934
-0.0239749
-0.0341595
-0.0512659
-0.0714021
-0.0999127
-0.141315
-0.198601
-0.296953
-0.454774
-0.713379
-1.06362
-1.11484
-0.934529
-0.760786
-0.642687
-0.577517
-0.50706
-0.473131
-0.438457
-0.412754
-0.378047
-0.375464
-0.339832
-0.332755
-0.31326
-0.295254
-0.282634
-0.262889
-0.245921
-0.226416
-0.206345
-0.184709
-0.162088
-0.137655
-0.111377
-0.0838726
-0.0533067
-0.0211828
0.0147215
0.053359
0.0964131
0.144012
0.199117
0.261606
0.338615
0.431615
0.549202
0.702085
0.905933
1.1698
1.45968
1.63345
1.55766
1.33617
1.11339
0.934841
0.798247
0.69379
0.610455
0.543757
0.488827
0.443508
0.404227
0.37028
0.340563
0.314321
0.290685
0.269486
0.250063
0.23244
0.215614
0.200444
0.186119
0.172457
0.15984
0.147995
0.13651
0.12569
0.115514
0.105785
0.0965233
0.0880542
0.0796789
0.0719595
0.0645807
0.0578045
0.0515182
0.0454311
0.0400166
0.0348215
0.0295317
0.0250331
0.0204806
0.0143971
0.00945131
0.00568594
3.18602e-05
-0.00613802
-0.0110971
-0.0221828
-0.0305313
-0.0468096
-0.0639092
-0.0907158
-0.129808
-0.184475
-0.270806
-0.412695
-0.637774
-0.926942
-0.983102
-0.845439
-0.713503
-0.60873
-0.548946
-0.492457
-0.463411
-0.433726
-0.407332
-0.372936
-0.366205
-0.334199
-0.328781
-0.307113
-0.289687
-0.276489
-0.25659
-0.239053
-0.219219
-0.198586
-0.176363
-0.153087
-0.128238
-0.101683
-0.073607
-0.0427344
-0.0106168
0.025162
0.0633107
0.106217
0.152877
0.206694
0.267965
0.341625
0.430305
0.541397
0.684106
0.866257
1.09198
1.32555
1.45087
1.38262
1.20009
1.01115
0.854618
0.73183
0.634126
0.556829
0.494583
0.443354
0.399991
0.362419
0.330471
0.302318
0.277083
0.254652
0.234561
0.216149
0.199163
0.183595
0.169219
0.155893
0.143251
0.131593
0.120836
0.110387
0.100772
0.0917381
0.0833243
0.0752508
0.0678935
0.0610557
0.0545605
0.0486208
0.0430593
0.037958
0.033301
0.029182
0.0250612
0.0212075
0.0176052
0.0135957
0.0104368
0.00617185
0.00256035
-0.000302613
-0.00470233
-0.00959741
-0.017832
-0.0258089
-0.0386137
-0.0523437
-0.0783354
-0.110732
-0.159208
-0.234652
-0.352646
-0.547141
-0.765044
-0.838665
-0.74931
-0.649212
-0.564208
-0.518485
-0.465637
-0.442127
-0.417567
-0.398439
-0.363184
-0.350436
-0.321098
-0.315589
-0.295519
-0.27785
-0.264343
-0.244349
-0.226786
-0.206766
-0.18597
-0.16377
-0.140555
-0.116063
-0.0897175
-0.0621367
-0.0320367
-0.000968624
0.0336688
0.0704315
0.111128
0.155336
0.205876
0.263025
0.330913
0.411777
0.512074
0.636971
0.794022
0.977801
1.15658
1.2457
1.18853
1.0428
0.886372
0.750461
0.642978
0.557064
0.487608
0.430626
0.383715
0.343659
0.30951
0.280162
0.253985
0.230983
0.210411
0.191928
0.174957
0.159793
0.145835
0.132796
0.120774
0.109866
0.0994593
0.0899972
0.0811817
0.0729996
0.065471
0.0585584
0.052068
0.0461815
0.0408789
0.0360228
0.0316556
0.0277622
0.0241634
0.0210637
0.0182806
0.0156132
0.0132395
0.0110782
0.00839699
0.00666782
0.00426804
0.00222046
-0.000104627
-0.00352563
-0.00680426
-0.0123745
-0.019056
-0.0272736
-0.0400875
-0.0583275
-0.0849431
-0.124997
-0.187351
-0.28354
-0.43785
-0.611535
-0.688693
-0.645975
-0.571034
-0.510479
-0.475381
-0.433302
-0.413192
-0.392301
-0.380211
-0.347185
-0.325756
-0.299667
-0.293443
-0.276267
-0.259154
-0.245479
-0.226077
-0.208574
-0.189027
-0.168659
-0.147154
-0.124846
-0.10111
-0.0759612
-0.0497683
-0.0214899
0.00770665
0.0397921
0.073703
0.110642
0.150925
0.196233
0.246794
0.306578
0.376749
0.462481
0.565518
0.691249
0.834173
0.964955
1.02443
0.978739
0.864711
0.739115
0.627412
0.536003
0.462345
0.40235
0.352448
0.311048
0.276363
0.246285
0.220471
0.197408
0.17717
0.159141
0.143006
0.12832
0.115164
0.103106
0.0920517
0.0819124
0.0728137
0.0643524
0.0566109
0.0496086
0.043265
0.037499
0.0323583
0.0277572
0.023711
0.0201453
0.0171025
0.0144775
0.0123248
0.0105187
0.00905721
0.00788161
0.00688656
0.00608006
0.00538608
0.00484429
0.00430188
0.00369236
0.00311049
0.00208476
0.00067712
-0.00122629
-0.00378538
-0.00761251
-0.0137898
-0.0228806
-0.0353277
-0.0550104
-0.0851345
-0.130763
-0.205649
-0.318437
-0.459395
-0.53202
-0.522136
-0.478219
-0.438532
-0.413125
-0.386182
-0.373072
-0.357051
-0.349625
-0.319292
-0.291647
-0.27076
-0.265095
-0.249017
-0.233186
-0.219538
-0.201322
-0.184473
-0.166035
-0.146838
-0.126624
-0.105645
-0.0837516
-0.0608021
-0.0368356
-0.0114787
0.0147588
0.0429537
0.0726047
0.104543
0.139123
0.177482
0.2198
0.268962
0.325531
0.393076
0.473419
0.567472
0.669257
0.756483
0.792484
0.755224
0.669739
0.572789
0.485515
0.412346
0.352036
0.302737
0.262269
0.227952
0.198818
0.174274
0.152638
0.133644
0.117133
0.102249
0.0889742
0.0771399
0.0664751
0.0568136
0.0481664
0.0403327
0.0333272
0.0270828
0.0214926
0.0165817
0.0123037
0.00863465
0.00553526
0.00298331
0.000960576
-0.00056811
-0.00163577
-0.002269
-0.00251074
-0.00242524
-0.0020607
-0.00148501
-0.000726656
0.000218415
0.00142897
0.00222257
0.00341483
0.00442963
0.00535474
0.0062629
0.00662841
0.00682184
0.0063419
0.00516861
0.00274454
-0.00140823
-0.00836812
-0.0200471
-0.0384099
-0.0691501
-0.118048
-0.194963
-0.295409
-0.364269
-0.380567
-0.368564
-0.351154
-0.340274
-0.324293
-0.320637
-0.31062
-0.308499
-0.285019
-0.249362
-0.231711
-0.228024
-0.213672
-0.199506
-0.186724
-0.170219
-0.154625
-0.137661
-0.120308
-0.102215
-0.0836212
-0.0644651
-0.0444655
-0.0240191
-0.00249173
0.019459
0.0426763
0.066853
0.0925557
0.119658
0.149454
0.181614
0.218324
0.259772
0.307893
0.362857
0.424955
0.488759
0.538875
0.553994
0.523082
0.461511
0.391796
0.3276
0.273774
0.228959
0.191738
0.161252
0.135417
0.113528
0.0947915
0.0784936
0.0643216
0.0518321
0.0408349
0.03114
0.0225078
0.0148695
0.00810198
0.00216428
-0.00302045
-0.00749345
-0.0112995
-0.0144357
-0.0169759
-0.0189405
-0.0203218
-0.021165
-0.0214402
-0.0212423
-0.0205752
-0.019486
-0.0180121
-0.0161769
-0.0140843
-0.0117769
-0.00932556
-0.00666305
-0.00385683
-0.000986242
0.00184737
0.00478991
0.00731721
0.0103521
0.0128319
0.0156295
0.017671
0.0201725
0.0215851
0.0233922
0.0235513
0.0230842
0.0203261
0.0138002
0.000376449
-0.0248953
-0.0683826
-0.131351
-0.192911
-0.229174
-0.24509
-0.24821
-0.253889
-0.252122
-0.255711
-0.254071
-0.257537
-0.241634
-0.195851
-0.184289
-0.181418
-0.170261
-0.158323
-0.14698
-0.132711
-0.119107
-0.104481
-0.0896518
-0.0745085
-0.0592371
-0.0436068
-0.0276579
-0.0116394
0.00490992
0.0214422
0.0386017
0.0559809
0.0740748
0.0926296
0.112406
0.133084
0.155814
0.180538
0.207936
0.2375
0.268773
0.297623
0.315684
0.312829
0.286073
0.244208
0.199316
0.158299
0.123728
0.0951528
0.0715683
0.0519043
0.0354498
0.0215586
0.00970007
-0.000515408
-0.00936124
-0.0170146
-0.0236192
-0.0293474
-0.0343044
-0.038481
-0.042044
-0.0449051
-0.0471557
-0.0488095
-0.0498323
-0.0503552
-0.0503154
-0.0497524
-0.0485866
-0.0469842
-0.0448914
-0.042308
-0.0392834
-0.0358786
-0.0321173
-0.0281078
-0.0238699
-0.0195055
-0.0150703
-0.0104198
-0.00570556
-0.00137662
0.00372038
0.00830067
0.0130419
0.0179086
0.021239
0.0269805
0.0309247
0.0370092
0.0418641
0.0469876
0.0521912
0.0590112
0.0655228
0.0718759
0.075414
0.0748941
0.0635534
0.0331191
-0.0154354
-0.0651242
-0.103329
-0.130248
-0.151865
-0.165647
-0.178358
-0.186512
-0.1958
-0.186414
-0.132315
-0.128248
-0.127364
-0.118611
-0.109974
-0.100605
-0.0892111
-0.0782694
-0.0668323
-0.0554856
-0.0440852
-0.0328928
-0.0218598
-0.0110113
-0.000402288
0.0101285
0.0201721
0.0301323
0.039652
0.0489134
0.0577712
0.0663981
0.0744714
0.0822908
0.0894593
0.095673
0.10042
0.102537
0.0999491
0.0902155
0.0720677
0.0478776
0.0222865
-0.000677141
-0.0196118
-0.0346881
-0.0465543
-0.0560615
-0.0637775
-0.0700329
-0.0752202
-0.0795095
-0.0829784
-0.0858012
-0.0881953
-0.0900397
-0.0913277
-0.0921571
-0.0926545
-0.0925164
-0.0921156
-0.0911716
-0.0897348
-0.087856
-0.0855293
-0.0826534
-0.0793804
-0.0755773
-0.0713534
-0.0667045
-0.0615951
-0.0561863
-0.050282
-0.0441485
-0.0377693
-0.0313457
-0.0247556
-0.0181953
-0.0115826
-0.00482056
0.00175619
0.00859567
0.0146936
0.0220946
0.0276808
0.0344275
0.0414206
0.0473058
0.0564539
0.0654289
0.0753733
0.0864516
0.101284
0.117616
0.134856
0.157194
0.178853
0.197737
0.198499
0.165913
0.109018
0.0505535
0.00186293
-0.0363318
-0.065538
-0.0890725
-0.106624
-0.122387
-0.122713
-0.0596546
-0.0627353
-0.0645253
-0.060277
-0.0545784
-0.0480522
-0.0402458
-0.032776
-0.0252771
-0.0182106
-0.0115836
-0.00547137
4.30581e-05
0.00490602
0.00905953
0.0125383
0.0151154
0.0168134
0.0174658
0.0169732
0.0150933
0.0116458
0.00623338
-0.0015793
-0.0124094
-0.0270468
-0.0463839
-0.0712282
-0.101458
-0.134717
-0.165631
-0.188555
-0.200744
-0.204417
-0.202835
-0.198794
-0.193732
-0.188824
-0.183879
-0.179209
-0.175088
-0.171307
-0.167594
-0.163966
-0.160601
-0.157194
-0.153712
-0.150214
-0.146596
-0.142627
-0.138553
-0.134246
-0.129524
-0.124515
-0.119196
-0.113426
-0.107281
-0.100613
-0.0937465
-0.0863055
-0.0785803
-0.0705569
-0.0622819
-0.0536273
-0.0448315
-0.036026
-0.0271977
-0.0184463
-0.00962371
-0.000852378
0.00843751
0.0168351
0.0256405
0.0336253
0.0418906
0.0519182
0.0610109
0.0688185
0.0809484
0.0917688
0.108669
0.126163
0.147952
0.173319
0.2035
0.243455
0.291515
0.335973
0.366303
0.350426
0.291119
0.217119
0.147594
0.0927826
0.0476016
0.0123233
-0.0151566
-0.0379777
-0.0490441
0.0222069
0.0104551
0.00590371
0.00530067
0.00730695
0.0101322
0.0135518
0.0167384