/*--------------------------------*- C++ -*----------------------------------*\
| =========                 |                                                 |
| \\      /  F ield         | OpenFOAM: The Open Source CFD Toolbox           |
|  \\    /   O peration     | Version:  2006                                  |
|   \\  /    A nd           | Website:  www.openfoam.com                      |
|    \\/     M anipulation  |                                                 |
\*---------------------------------------------------------------------------*/
FoamFile
{
    version     2.0;
    format      ascii;
    class       volScalarField;
    location    "20000";
    object      I1_11;
}
// * * * * * * * * * * * * * * * * * * * * * * * * * * * * * * * * * * * * * //

dimensions      [0 0 0 0 0 0 0];


internalField   nonuniform List<scalar> 
14751
(
-3.72784e-20
5.26513e-15
7.4536e-15
-7.03788e-14
4.72309e-14
-1.22229e-14
5.88479e-11
-2.65482e-12
-1.55621e-13
-7.53697e-16
-1.4351e-14
5.88802e-17
3.41115e-15
1.51547e-16
1.22575e-15
-1.02056e-17
-2.19432e-16
-3.16805e-17
-8.26426e-17
-1.13487e-17
9.06556e-18
2.43225e-17
-1.63796e-17
1.1226e-17
-3.07879e-18
1.11988e-18
-1.0982e-24
-9.64555e-19
-3.33136e-19
-2.34248e-20
7.54248e-21
1.09536e-20
5.96512e-20
6.05718e-19
2.31289e-19
1.80843e-18
-5.17092e-18
-2.31714e-20
1.3745e-18
-1.35754e-18
2.44306e-18
1.08287e-15
-6.83491e-22
8.59345e-16
-1.77232e-17
6.67193e-16
1.00133e-14
-2.87843e-15
9.05575e-18
6.68631e-14
-8.72002e-13
2.74778e-16
1.47064e-16
8.2318e-17
-2.36739e-16
9.3225e-17
3.29634e-17
1.38899e-15
1.03139e-15
3.10984e-15
-3.95048e-17
1.4132e-17
-2.73384e-15
2.98954e-16
-2.34066e-16
5.41108e-22
-3.45626e-16
-5.88096e-18
1.24136e-16
2.39727e-17
-9.08667e-17
7.13946e-18
8.84949e-17
8.59918e-17
5.36983e-17
-5.73065e-18
-4.29255e-17
-3.51938e-17
3.40006e-18
5.02649e-17
5.79681e-17
3.29039e-17
2.9327e-18
-1.61805e-18
1.8087e-17
1.64594e-17
-7.50429e-18
2.02804e-20
0
1.8704e-23
5.18688e-18
-2.46012e-18
4.24145e-18
-1.15224e-18
-5.8288e-18
-9.70417e-17
-4.33865e-16
1.6484e-18
1.50749e-23
1.97301e-18
-3.40946e-13
-1.94968e-14
1.07653e-11
-2.27e-14
-6.6959e-15
-1.00151e-13
1.76605e-16
2.12217e-14
3.86691e-16
7.72599e-15
2.47784e-18
-3.72198e-15
-1.62167e-16
2.10139e-16
-7.60377e-18
-1.4621e-16
6.15596e-17
3.41952e-16
4.10424e-17
-2.55127e-19
-2.09958e-16
1.89015e-16
-1.63752e-16
1.39161e-17
-1.24847e-19
2.64621e-19
3.56343e-17
1.23614e-18
-4.70143e-19
3.65079e-20
4.75432e-22
6.41518e-18
2.21136e-17
3.46156e-18
1.063e-16
-2.14753e-16
-3.14367e-18
4.20203e-17
-3.80463e-17
-3.11383e-18
-6.16255e-19
-2.0107e-18
-3.8612e-17
-3.06018e-16
1.86819e-14
2.35936e-14
-1.28242e-13
3.15436e-15
-1.39484e-15
-4.94936e-14
1.61389e-15
2.68833e-15
-2.46188e-16
-1.54299e-15
2.37135e-16
-3.89014e-19
-1.17686e-16
-8.39399e-17
-9.03664e-16
-1.5685e-17
-1.08531e-16
5.74585e-15
4.33835e-15
-3.6117e-15
3.18985e-17
4.55839e-16
-2.80559e-16
-1.8601e-17
-1.68574e-15
-2.34588e-17
1.39834e-16
2.24095e-15
2.11707e-15
2.27968e-16
-2.08794e-16
-1.43833e-15
-1.28763e-15
1.33856e-16
-1.2058e-16
7.41541e-16
-1.23878e-17
5.55071e-17
-9.08437e-17
3.03952e-17
3.38045e-16
-5.37057e-18
2.67636e-18
-3.67931e-22
-3.33073e-21
3.73079e-19
2.13532e-16
3.78218e-18
-3.24559e-17
4.14567e-17
2.56698e-15
3.19015e-17
4.82767e-17
-1.79811e-21
6.36652e-18
1.12542e-11
-2.48772e-11
2.86105e-15
4.07475e-13
-1.42385e-13
2.88314e-14
3.78577e-16
-1.01398e-14
-1.29516e-14
4.69401e-15
-2.17319e-16
2.51249e-15
-2.80029e-18
2.95519e-15
1.61372e-16
-9.97618e-19
2.16199e-17
-2.83804e-16
-9.15362e-17
6.33632e-19
1.61048e-16
-1.26506e-16
-4.40001e-16
-2.35095e-16
2.2176e-17
-1.50424e-16
-4.42824e-17
3.12791e-18
-1.24471e-18
-1.53653e-18
4.42235e-18
2.642e-17
4.39185e-17
-4.55683e-20
-1.60568e-16
3.55688e-16
-1.42494e-15
-1.26897e-18
-3.1316e-17
-2.77124e-16
1.0497e-15
-1.19319e-15
3.847e-14
9.8793e-14
-8.56154e-14
-2.6011e-13
1.49271e-11
4.04096e-13
-5.82808e-15
6.64204e-14
-6.0078e-16
3.05262e-15
-2.89259e-14
-1.20531e-15
-2.92009e-14
-6.62569e-17
1.0027e-15
1.42268e-15
-9.67479e-16
7.54387e-18
-1.50505e-14
-5.3423e-15
5.08944e-15
5.54403e-15
5.81837e-15
1.43723e-14
7.6769e-16
-5.23838e-16
1.13368e-14
-7.97827e-15
-7.13458e-15
-2.42e-15
-3.59004e-15
-6.43429e-16
5.5887e-16
1.9667e-15
-5.11736e-15
-3.68031e-16
3.08171e-16
-1.03377e-15
-3.48563e-15
-2.36546e-15
-1.19732e-16
8.48608e-17
-4.7229e-16
1.00763e-18
1.3833e-17
-1.408e-18
9.14271e-21
1.43595e-16
-2.70699e-16
-1.48807e-15
3.02396e-15
-7.23622e-17
-3.14647e-15
1.67665e-14
-8.29046e-17
4.13631e-18
5.33283e-17
3.19968e-14
4.41224e-12
4.4857e-13
1.73878e-13
8.32897e-14
8.77561e-14
-5.51029e-14
3.56984e-14
-1.33487e-14
9.78304e-15
-2.48307e-18
2.57479e-17
4.16892e-16
-3.95227e-15
-7.47154e-19
4.38139e-18
-4.50798e-15
3.65448e-15
3.56986e-15
-1.79285e-16
3.20211e-16
-2.20211e-15
7.87899e-16
3.26275e-16
3.80486e-17
6.69468e-16
1.86848e-17
-1.12968e-17
9.8249e-20
8.63121e-18
-2.51633e-17
-7.42783e-17
-1.28069e-16
-4.6171e-17
-1.64218e-15
-3.37758e-15
-2.90541e-15
-8.20825e-16
-2.5781e-14
-3.49419e-15
4.37831e-15
-1.57153e-13
-2.53401e-13
-1.42908e-14
1.02911e-12
-1.94533e-11
1.48424e-13
-1.32962e-16
2.6177e-15
-2.2313e-14
-4.98538e-14
4.04927e-16
2.34372e-14
-2.19274e-15
2.81146e-14
-3.24241e-15
3.80956e-15
-3.0188e-14
4.60954e-14
1.51894e-15
1.55985e-14
3.90673e-15
-1.38755e-14
-2.51512e-14
-1.05859e-14
-1.87664e-14
1.88052e-15
2.72119e-14
-1.2978e-14
1.12129e-14
1.02584e-14
4.49274e-17
2.20764e-17
5.43462e-18
4.48786e-18
-1.00666e-16
1.12479e-14
-9.90557e-16
1.07731e-18
-1.17368e-14
4.88628e-15
1.08298e-14
1.77404e-16
1.27486e-16
8.59324e-17
1.47075e-15
2.06027e-17
1.66958e-21
9.9104e-19
-2.38389e-16
3.04511e-18
2.69477e-15
-5.68913e-15
-2.76923e-14
2.98308e-14
-4.16836e-14
6.53931e-14
-4.30838e-15
1.98335e-17
-2.90408e-15
-5.28709e-13
-1.39817e-13
1.69776e-15
8.55404e-14
-1.46226e-13
3.28016e-14
-2.34801e-14
1.74356e-14
-1.33836e-14
5.88957e-18
1.18115e-16
-1.48019e-14
-3.39888e-17
3.16956e-16
-5.66531e-16
4.17045e-15
-3.44058e-15
7.97135e-17
5.15531e-19
1.348e-18
4.14993e-15
-1.04267e-16
9.56411e-17
-7.3208e-17
-4.5216e-16
6.15319e-17
2.34608e-19
-1.63084e-16
-1.25278e-17
1.19521e-20
1.31012e-17
3.17264e-19
1.33353e-19
-2.28561e-15
5.08446e-15
1.09963e-14
1.53793e-16
1.0974e-13
1.01049e-14
4.53627e-13
1.01633e-12
3.7275e-14
-2.16377e-10
-6.46654e-12
-7.07978e-13
2.59433e-13
3.45145e-16
-2.31457e-15
2.27593e-14
1.85183e-14
2.57208e-14
-9.72997e-17
9.62294e-18
-2.62987e-14
-4.31866e-14
-3.89146e-14
1.66361e-14
-2.73891e-14
2.35818e-14
1.85257e-16
2.26798e-16
-3.79173e-14
1.82766e-14
4.98316e-17
1.79771e-15
-2.50652e-14
-2.19218e-14
5.86766e-17
-3.41199e-14
-2.17281e-15
3.51575e-15
-1.57247e-15
-4.09926e-21
4.03726e-20
-1.68108e-14
-3.81104e-17
1.20842e-14
8.23217e-16
1.00835e-14
8.29422e-15
-6.69012e-15
2.08581e-19
1.46749e-19
-3.78761e-19
-1.54999e-15
-1.41767e-15
-1.06699e-19
4.87733e-18
-2.29403e-18
-4.51201e-15
6.82948e-18
-2.0325e-17
8.8036e-14
-5.16491e-14
3.62956e-13
-2.17806e-13
2.06694e-13
-6.9966e-15
-2.01677e-13
4.69665e-16
8.15519e-16
-5.18322e-14
-1.03627e-13
4.33641e-14
3.29908e-14
2.70405e-16
1.16577e-16
1.2806e-16
-1.62342e-16
1.01169e-14
8.23731e-15
-4.72225e-19
-2.35179e-16
1.74421e-16
-5.10217e-15
4.76257e-15
-5.84031e-15
-1.96263e-16
9.68965e-17
-1.23829e-15
6.93214e-17
4.99246e-17
-1.61052e-18
-6.23127e-16
-3.90031e-16
-2.69917e-16
1.05861e-16
3.69771e-18
1.30554e-17
2.99177e-16
3.63922e-17
1.64033e-19
1.39486e-17
2.95715e-17
-1.22556e-16
7.07001e-14
-1.15141e-13
1.00801e-12
-5.02578e-14
-5.817e-13
-1.47518e-13
2.9245e-14
1.7165e-13
4.38541e-14
-5.17726e-14
8.81816e-15
3.99361e-16
-4.91979e-15
4.53907e-16
-6.31931e-15
-3.17276e-16
-4.40877e-19
2.32978e-14
1.38141e-14
2.33521e-14
6.16007e-16
-1.93324e-14
-8.51026e-15
1.5678e-14
1.47837e-14
1.38172e-14
-6.14379e-17
-7.45549e-16
1.47613e-15
2.91298e-14
-1.81169e-14
-1.11907e-15
3.37964e-14
-1.50863e-14
-7.80297e-18
-2.09976e-18
3.17126e-18
-1.44742e-19
2.9183e-14
-1.11813e-15
-6.83691e-15
1.29728e-14
1.45188e-15
-1.55466e-14
-5.07392e-16
2.07292e-16
1.78608e-16
-1.0096e-16
3.679e-17
2.1222e-15
-2.42915e-16
6.95297e-20
-8.76789e-18
4.40691e-15
1.96973e-21
-2.97114e-16
6.61059e-14
-3.84718e-13
-1.15346e-12
-4.25523e-12
1.00122e-16
7.7989e-14
-3.86675e-14
-4.87396e-14
-5.09351e-14
9.85151e-17
4.78478e-14
1.46236e-16
-2.53708e-14
-1.9792e-14
-2.66235e-16
1.00061e-16
-1.05664e-14
-4.43686e-15
-8.85125e-18
7.75072e-18
2.99218e-15
-1.53081e-16
4.66367e-15
-1.97517e-15
1.84184e-15
-1.94292e-16
5.06559e-18
7.29822e-17
-5.93975e-17
9.89384e-16
-4.92735e-17
3.34945e-16
-2.3155e-16
1.26766e-16
1.2527e-16
-3.12993e-19
-1.64032e-17
-1.89651e-16
-2.36934e-17
7.82225e-17
3.32255e-15
2.07165e-14
-3.35421e-14
-1.44049e-13
3.12842e-15
-4.14287e-11
-1.76608e-12
-1.58489e-14
9.33907e-15
5.53136e-17
7.62565e-17
-6.59939e-16
3.7486e-15
1.37523e-15
1.73419e-18
-1.85139e-15
-9.84697e-19
-1.28981e-16
1.49536e-16
2.72686e-17
-3.91585e-15
-3.50131e-17
-9.68269e-15
-4.24466e-17
5.18815e-15
-4.74857e-15
-3.79809e-16
-4.2625e-15
-3.89198e-17
5.07884e-21
-2.85688e-16
7.38101e-15
-6.43175e-15
6.26983e-15
-3.98455e-16
-5.84766e-15
5.85089e-15
3.98416e-16
-6.41189e-16
2.95182e-16
3.61068e-17
-8.38801e-15
-5.41788e-16
4.49985e-16
-5.98938e-15
-3.88188e-16
5.38296e-15
-2.63319e-16
-1.11141e-16
5.64432e-15
4.28883e-15
-4.27569e-17
-6.93571e-16
5.30954e-16
2.06582e-17
1.57061e-15
2.92755e-17
-1.91721e-19
-4.94733e-19
-2.21308e-13
-8.61795e-16
-3.97228e-11
1.19641e-11
-2.81161e-18
1.88898e-16
3.53086e-14
1.23201e-14
3.09435e-14
-2.24436e-14
-8.3181e-15
-1.21928e-16
4.77701e-15
7.72517e-15
6.45029e-15
1.82266e-16
-1.93449e-16
-3.97124e-15
3.33348e-15
-4.04693e-17
-1.23272e-15
-1.82461e-18
-3.1902e-15
5.04135e-17
9.19029e-18
-9.25883e-19
2.055e-20
2.75929e-19
-5.39694e-16
-4.71958e-16
4.26851e-16
-3.50078e-16
2.47539e-16
3.56828e-19
-7.38649e-17
8.57168e-18
1.29227e-17
-9.10346e-18
6.79747e-16
-8.267e-18
2.2365e-16
-3.32942e-14
9.54882e-14
3.14116e-12
2.39765e-14
4.09282e-15
5.92245e-16
3.75452e-14
-5.43875e-16
7.1169e-17
4.89236e-15
-9.86846e-17
1.64627e-15
-6.72052e-16
4.20668e-17
5.00009e-16
-4.67005e-17
1.47428e-15
4.12189e-17
1.22015e-15
2.7835e-17
-6.86765e-17
2.0971e-15
-1.99793e-15
9.30433e-17
1.70994e-15
-1.71426e-15
1.08759e-16
-1.22464e-18
-3.54615e-17
-2.85053e-15
-2.33256e-15
4.9388e-15
4.86496e-15
-1.23466e-16
-4.31186e-15
4.26936e-15
4.54153e-15
-2.54505e-16
-2.50988e-16
4.03567e-15
-2.02269e-16
-6.50879e-15
-1.18134e-18
5.88069e-15
-5.33744e-15
4.86894e-15
-1.34142e-16
1.07226e-16
-1.55552e-17
2.76728e-17
-5.17461e-17
2.95607e-17
-4.23863e-18
-2.06542e-17
2.32809e-19
-7.28905e-15
1.35584e-16
-5.60629e-16
-4.12892e-15
1.57296e-13
4.90515e-12
2.43699e-15
-8.5252e-21
-2.95292e-15
1.66375e-16
9.04013e-15
-5.70324e-15
8.67711e-15
7.01689e-15
5.40973e-15
4.42737e-17
5.35687e-17
-2.96103e-15
-2.63223e-15
2.25516e-15
1.88709e-15
1.29006e-16
-9.76799e-17
1.42109e-15
5.3621e-17
1.11486e-15
-2.23681e-17
3.11751e-17
-2.2622e-21
-1.59895e-19
-4.14812e-18
-3.19446e-16
-1.84289e-17
2.64916e-16
2.1844e-16
-1.81441e-16
-1.08909e-16
-6.90455e-20
-7.18228e-18
1.91255e-17
-2.73035e-16
6.86069e-16
-6.13633e-15
-1.54215e-14
-3.45495e-15
6.85669e-14
-6.73174e-15
1.0002e-13
3.72083e-14
9.80078e-15
-6.13718e-15
4.13049e-15
3.2413e-15
-2.53888e-15
1.05629e-15
-4.45143e-16
1.14352e-17
-8.28731e-18
1.53768e-16
2.92347e-16
-5.0309e-18
6.94584e-18
-1.42831e-15
9.2919e-16
-2.55242e-17
-8.36178e-18
7.80044e-16
-1.10148e-17
-7.45855e-18
7.59548e-18
-1.85621e-17
-8.21547e-17
-2.39405e-15
3.61544e-15
1.09703e-17
-2.34177e-15
-4.5371e-15
2.14414e-15
2.2639e-15
-4.26034e-15
-2.06756e-15
-1.28119e-16
-7.15736e-19
1.99447e-15
1.27787e-18
7.10594e-15
7.01953e-20
-3.24391e-15
1.52703e-17
-2.28373e-17
5.96035e-19
-2.30128e-15
-2.05697e-15
-1.56776e-15
-2.03371e-17
7.03492e-16
-2.10575e-16
-1.03313e-19
-2.58272e-15
8.88962e-15
-5.81999e-17
-2.03662e-17
-1.96656e-11
-1.9031e-12
1.50931e-15
2.80973e-18
-1.29357e-19
-5.33515e-16
-2.18604e-15
-7.3518e-15
-1.1066e-16
5.11235e-17
-3.33844e-15
-2.68075e-15
6.65431e-19
3.52399e-18
-1.74042e-15
1.40705e-15
5.78981e-17
1.20438e-15
-1.0525e-15
2.17708e-17
-1.71453e-15
-7.81727e-16
7.54127e-16
-6.85437e-16
-2.00038e-17
2.98255e-21
1.29792e-17
5.0091e-16
4.72269e-16
-4.39959e-16
-3.89593e-16
1.75049e-18
1.36361e-16
9.61434e-17
-2.37912e-21
-4.0865e-21
-1.07671e-20
5.95319e-16
-3.97523e-15
1.29931e-14
-6.97013e-14
3.93827e-14
-3.57187e-15
-5.4418e-14
-1.31308e-14
-1.38494e-14
2.2667e-15
1.69179e-15
-1.28814e-15
-4.16135e-17
4.7778e-16
-4.13211e-16
-9.1282e-19
-1.60525e-16
2.25615e-18
-6.80614e-17
1.12957e-16
5.4775e-18
4.49187e-16
4.38693e-16
-4.01238e-16
-1.79991e-17
-3.47162e-20
7.2315e-16
-7.11724e-16
-2.22511e-17
2.07652e-17
-1.29922e-15
-8.18927e-17
1.34805e-15
-2.61234e-15
8.84782e-17
-2.6761e-17
2.52003e-15
-1.26836e-15
4.8733e-17
1.06714e-15
2.50695e-15
-1.45262e-16
7.14425e-17
-2.36055e-15
6.87574e-17
-2.2127e-15
-1.01602e-17
1.26197e-17
-7.02867e-17
-1.92042e-15
6.80901e-17
1.68147e-15
1.30601e-17
3.8633e-17
-1.04677e-15
-1.24413e-15
-5.73889e-20
-1.56442e-22
1.5819e-15
1.55386e-14
-7.82863e-16
1.75723e-14
1.00433e-12
2.159e-13
-2.56577e-16
3.75714e-17
-2.09695e-18
2.2512e-16
-1.39931e-17
-1.99535e-15
2.72844e-15
2.31186e-15
-1.89993e-17
-7.24754e-17
3.6047e-17
2.59854e-18
1.00134e-15
1.90344e-15
-1.6579e-15
-7.14175e-16
-3.52145e-17
-1.2828e-15
5.67195e-16
-5.82946e-16
5.32379e-16
4.77889e-16
4.46011e-20
3.33455e-20
4.04082e-16
-3.87801e-16
2.40305e-17
6.89869e-16
-1.75858e-18
-2.89899e-16
7.88894e-18
1.68107e-16
3.01347e-18
-3.13354e-18
9.1081e-19
-7.99507e-16
-1.02806e-16
-6.37883e-17
3.12308e-13
-2.23087e-16
-4.2002e-16
1.04361e-14
1.95851e-17
3.70778e-17
-1.53732e-15
-6.33736e-16
-3.47171e-17
-2.81432e-18
-1.7001e-18
9.86448e-18
-1.71739e-16
7.91531e-17
-6.00782e-21
3.49712e-19
-2.56436e-16
-1.22955e-16
-4.50924e-18
2.23663e-16
-4.54309e-18
-4.20662e-16
3.4304e-18
-8.26155e-16
4.0955e-16
1.59887e-19
-3.15468e-17
3.86178e-17
7.34641e-19
-2.44705e-18
-7.4487e-18
7.91129e-16
-4.73816e-17
-7.98548e-16
4.35173e-17
-1.51089e-15
-1.69179e-17
-1.53891e-15
5.36917e-19
-4.0108e-19
-1.49961e-15
1.77288e-19
5.92143e-17
-1.54135e-15
-5.38188e-22
-1.46444e-15
-3.32677e-18
2.86245e-15
-3.99249e-17
2.61697e-15
-2.3546e-15
2.87632e-15
6.35359e-16
-4.24484e-16
-1.55045e-18
4.90127e-15
-4.31927e-14
-2.61984e-15
-3.79678e-15
1.66916e-15
4.22503e-14
2.11068e-14
-6.42409e-15
3.84813e-19
4.02205e-19
6.25038e-19
4.25625e-15
6.74497e-17
-1.4076e-15
8.18155e-19
2.07891e-15
-1.80927e-15
3.67775e-19
3.58618e-18
-1.25158e-15
-2.34579e-17
-1.0414e-17
9.89631e-20
9.18204e-16
8.16178e-18
1.64458e-15
-7.73502e-16
1.98177e-17
-2.31124e-17
-2.56072e-20
-3.3059e-16
-3.30041e-16
3.14864e-16
-6.0071e-16
1.01403e-22
2.63113e-16
-5.69894e-19
-1.76768e-16
-8.89155e-17
3.05197e-17
-3.37487e-18
6.04321e-16
1.05683e-14
7.6912e-14
-1.10492e-15
-9.57517e-15
-4.98451e-15
1.52116e-15
-6.77697e-21
8.42566e-16
-1.71735e-17
3.8689e-17
-5.18992e-16
-2.33727e-16
4.9036e-18
1.8656e-16
9.26475e-17
-4.14422e-17
3.8094e-21
-5.93023e-19
7.7291e-17
-1.36433e-18
-1.45011e-16
-1.31124e-16
8.51498e-18
2.65779e-16
2.48247e-16
2.57273e-16
-2.95563e-18
4.46467e-18
-4.81039e-16
4.69299e-16
1.99107e-17
4.96763e-16
-2.00939e-17
-1.51573e-15
-1.64779e-17
3.7963e-17
-1.0202e-15
1.02808e-15
-1.0224e-15
4.51215e-17
-4.19774e-17
2.42373e-19
1.1126e-15
7.11965e-17
3.73373e-19
1.09991e-15
-3.83175e-19
2.33819e-15
-2.35342e-15
-4.86969e-15
2.42925e-15
-2.3625e-15
-1.57893e-17
-2.01941e-15
-3.0631e-18
4.66738e-16
7.80838e-16
4.72155e-17
-1.52861e-15
1.85399e-16
1.25575e-13
-2.27482e-14
-1.34071e-14
-8.25353e-15
5.61154e-15
-5.1994e-20
7.19116e-17
-2.82058e-19
-1.31534e-15
-2.12534e-15
1.84256e-15
-1.25085e-18
-2.8123e-15
1.22394e-15
-3.64436e-19
1.4774e-19
9.25942e-16
-1.46225e-17
1.98206e-19
-1.17228e-17
-6.95303e-16
-2.00822e-17
-6.04197e-16
-9.91181e-18
6.10839e-16
-1.22117e-19
5.56401e-18
-2.01536e-17
3.12062e-16
-2.73662e-16
2.50556e-16
3.96589e-21
-4.77534e-18
2.44291e-16
-6.21488e-18
9.07396e-17
8.13867e-17
-7.9279e-18
-9.60075e-17
4.51543e-16
-5.4106e-16
-5.02322e-15
2.74681e-15
1.61338e-17
-1.25878e-15
-2.45039e-19
1.62058e-18
-6.95825e-18
9.20175e-18
2.80912e-16
1.27637e-18
-1.13308e-16
-1.17471e-16
-2.26268e-18
2.69849e-17
-1.5514e-18
2.28843e-19
-4.51408e-17
1.5286e-18
-8.94682e-17
1.75897e-16
-5.58029e-20
-2.22277e-18
-1.74039e-16
-3.32416e-16
8.96558e-18
3.2524e-16
3.48202e-16
-4.10281e-18
3.47469e-16
-3.44244e-16
-3.47273e-16
7.22257e-16
-2.27659e-17
2.23911e-17
1.51572e-15
-9.02099e-18
7.97975e-16
3.85994e-17
-8.68759e-16
3.93242e-17
-1.73355e-15
-1.31727e-17
-5.832e-17
1.1173e-16
-6.15054e-17
1.94819e-15
2.20664e-15
2.28386e-15
-2.39602e-15
4.70169e-17
4.68642e-15
-6.27803e-17
-1.72423e-15
-7.44483e-19
-2.44207e-15
-3.82364e-14
5.05949e-17
7.13889e-14
-3.05723e-14
8.13059e-15
-6.96588e-17
-2.34474e-17
-1.44128e-15
1.91058e-19
-1.34632e-16
1.3749e-17
9.0194e-16
7.13691e-16
4.78126e-17
-4.09787e-18
2.0119e-15
3.764e-17
-1.23186e-17
-3.32951e-18
-7.10819e-16
6.67722e-16
1.32144e-18
2.01292e-17
5.56841e-16
-1.69465e-17
7.72791e-18
-8.27958e-20
-4.76002e-16
-1.6082e-17
-5.00024e-16
-1.50136e-17
2.26928e-17
-2.16253e-18
1.72837e-18
-5.85e-20
-5.00683e-16
-2.32195e-16
-1.69046e-20
-2.60129e-18
-1.9235e-16
-3.42017e-19
1.30792e-19
-1.62714e-17
-8.4901e-15
1.65797e-15
-5.09702e-18
7.60213e-16
6.65353e-16
-1.57697e-17
4.49509e-16
3.98554e-16
-5.87913e-18
-5.04524e-19
3.59834e-18
1.53464e-16
-7.35822e-17
1.04548e-18
-3.33548e-17
-9.93372e-19
1.68294e-17
3.07914e-17
5.67016e-19
1.22808e-16
-1.1813e-16
1.34575e-19
-3.71257e-18
-2.22115e-18
4.87636e-16
2.41191e-16
-4.89134e-16
-3.60388e-18
1.33994e-17
-2.21566e-17
1.95613e-17
5.26924e-16
-7.46426e-18
2.34507e-17
-1.1842e-17
-5.80081e-16
-1.83341e-17
-7.83888e-18
1.24831e-15
6.99974e-16
1.34168e-15
1.38039e-15
-1.4533e-15
1.55119e-19
6.16999e-17
1.11865e-18
-1.86261e-15
-1.93565e-15
-1.97919e-15
-5.46141e-17
-3.14088e-19
1.06162e-17
-3.84522e-17
2.14934e-15
-4.67231e-16
-7.11221e-15
3.42186e-14
-7.46062e-18
1.38323e-16
-1.18306e-14
4.6596e-17
1.59669e-17
1.82686e-17
5.3288e-18
-2.43837e-20
5.89052e-17
-6.73774e-16
-6.23667e-16
-2.12756e-18
-9.59684e-16
3.25898e-18
-7.44669e-16
-7.41469e-16
6.40954e-16
-7.81743e-20
5.63934e-16
1.26558e-17
-4.90673e-16
-5.08763e-16
1.78831e-17
-1.50661e-17
7.37123e-18
-2.7841e-19
-4.44487e-16
4.88676e-20
4.39597e-16
-1.8351e-17
-4.49873e-16
1.03141e-19
2.91195e-18
1.47459e-17
9.5129e-16
6.72941e-18
-6.18817e-18
6.5884e-17
-1.18943e-17
-1.36902e-15
1.17253e-19
-2.3962e-15
1.84898e-15
-2.63823e-18
-1.61149e-17
1.03843e-17
-1.53125e-17
1.92154e-17
-1.22144e-17
-2.49577e-16
-3.59242e-18
1.12826e-16
-1.06435e-16
4.7531e-17
5.2304e-17
-1.45494e-18
2.3436e-17
1.43417e-18
-1.04526e-17
-9.95899e-19
4.22556e-17
-4.53096e-17
8.94567e-17
3.57982e-20
7.20018e-20
-3.01105e-20
-3.61517e-16
-1.81644e-16
3.73116e-16
-1.00422e-17
3.73406e-16
-1.8614e-16
-1.08767e-17
3.96007e-16
-1.33709e-17
4.33016e-16
4.37815e-16
-4.40758e-16
2.10403e-19
-5.18746e-18
-1.00705e-15
-7.21276e-18
-1.0924e-15
-8.67684e-17
1.27553e-15
-4.09252e-17
1.46928e-15
5.40353e-19
-3.47277e-17
7.92863e-17
2.38069e-17
-6.40329e-17
-1.71903e-17
-2.5206e-15
-4.33487e-17
-2.60288e-15
2.94519e-16
3.32017e-14
-2.36685e-18
-2.42982e-17
-7.60233e-15
5.56662e-15
4.18067e-15
-3.55283e-15
-1.42266e-15
-1.12667e-15
2.42564e-19
4.61675e-17
9.67926e-16
-1.00038e-15
8.45742e-16
-7.82943e-16
4.68153e-19
-1.14175e-17
1.10308e-15
5.57129e-16
-4.15338e-19
-4.47996e-16
1.77781e-20
-4.37945e-16
3.97819e-16
-1.49726e-17
7.61772e-16
-3.92829e-16
1.21772e-17
3.77087e-16
-1.6235e-17
1.33016e-17
3.80928e-16
4.23705e-16
-1.32662e-17
-4.40699e-16
5.46033e-20
4.84018e-18
-7.33577e-18
1.69208e-19
-7.06505e-17
5.67749e-16
3.55027e-15
-7.03774e-18
7.71322e-16
-2.50285e-18
-2.39146e-18
-2.25391e-18
-7.75489e-18
-2.13449e-16
5.92846e-18
-1.79829e-16
2.72679e-18
1.40511e-22
-7.79651e-17
1.46535e-16
6.63234e-19
-3.46531e-20
1.30575e-20
4.98874e-20
-1.37224e-19
1.57145e-17
8.66521e-19
-3.30658e-17
5.09139e-19
-6.87412e-17
2.04021e-18
2.11463e-18
-6.33329e-18
1.4422e-16
1.39857e-16
-2.87316e-16
-2.76764e-16
-2.99493e-16
2.42843e-18
-3.01305e-16
-3.42813e-18
-2.00323e-17
-3.30276e-16
-9.91713e-18
3.65469e-16
8.7685e-18
7.81813e-16
-1.41158e-17
-8.5545e-19
-8.69742e-16
3.51324e-19
-1.31152e-17
4.05365e-19
-6.15092e-17
-5.42528e-19
4.42385e-17
1.56479e-15
1.68525e-15
4.08612e-17
4.52452e-15
-2.89126e-17
6.45229e-17
2.96262e-15
-7.79191e-16
-2.00271e-14
2.49751e-15
3.65063e-15
3.72174e-15
3.13381e-15
-2.50985e-15
4.5019e-15
-9.90031e-16
-9.72837e-18
1.18623e-20
-3.22678e-17
-3.56484e-16
7.3561e-16
-1.29304e-15
5.78909e-16
-3.08554e-19
1.28491e-18
5.00909e-16
-8.56041e-16
4.17584e-19
-1.0542e-17
3.21992e-19
6.84448e-16
8.71329e-18
6.45457e-16
-5.97903e-16
2.91447e-16
-1.06282e-17
-6.57065e-16
3.4032e-16
3.41257e-16
-3.52098e-16
1.61826e-17
-1.18597e-17
3.99087e-16
5.1099e-19
1.64363e-17
1.53039e-18
-6.57812e-18
-7.1362e-17
-2.32087e-15
-2.76035e-15
-2.72033e-16
-7.28414e-19
1.11911e-17
-3.83867e-16
-3.33765e-16
-4.82649e-18
2.79642e-16
4.08122e-18
-3.83348e-18
1.24868e-16
-3.45663e-18
1.0909e-16
-5.44477e-17
-2.15947e-20
-5.04855e-17
-7.87232e-21
-2.78728e-21
4.34798e-21
-1.23775e-17
2.43858e-17
-3.89204e-19
7.80024e-19
-6.57437e-20
1.49796e-18
-2.82082e-20
8.62906e-20
-1.94127e-18
-8.2347e-20
1.09259e-16
2.25901e-16
-2.23127e-16
3.3437e-18
2.44411e-16
-4.9575e-16
4.11162e-19
4.48915e-18
-2.7658e-16
-3.93155e-18
5.92678e-16
-2.63597e-17
7.4402e-20
-2.19917e-17
6.64519e-17
-2.51184e-17
-6.49223e-21
2.14885e-19
-9.9357e-16
9.11372e-20
-7.05311e-19
3.08818e-17
-6.15573e-17
-3.61151e-15
-4.86077e-17
7.10498e-19
6.12173e-15
-5.74454e-17
3.94106e-15
1.10117e-16
-1.20307e-17
-1.47639e-15
-6.11944e-15
-1.90403e-15
-1.71729e-15
-1.51445e-15
1.36559e-15
-1.14317e-17
-1.45651e-20
-2.63576e-17
-1.09593e-18
1.4301e-17
1.00671e-15
3.24421e-17
1.64876e-18
-2.07536e-17
-7.1367e-16
6.90944e-16
-3.50313e-19
-1.23605e-19
0
1.62637e-17
-1.25232e-17
2.57232e-17
-5.68921e-16
5.62692e-16
5.5509e-16
5.43672e-16
-8.6095e-16
3.0402e-16
-1.14219e-17
-9.76718e-18
1.09593e-17
3.72301e-16
1.11031e-19
-4.17216e-16
-4.17686e-16
3.06462e-16
-3.97099e-19
-2.45793e-18
2.82852e-15
2.33163e-16
5.51144e-19
-2.12534e-16
2.29776e-16
2.16342e-16
6.58135e-18
-1.97922e-16
1.35171e-18
-9.46192e-17
-8.74335e-17
1.25548e-18
-8.00108e-17
4.69232e-19
-1.04743e-18
3.95946e-17
1.84275e-22
-1.38625e-23
7.37321e-20
9.81503e-18
-1.95232e-17
1.59925e-20
6.80311e-19
3.80975e-17
-1.19717e-18
1.16607e-18
-1.22124e-18
1.26456e-18
-8.32266e-17
-1.65224e-18
-1.69156e-16
1.76485e-16
1.80803e-16
-3.92226e-18
7.83886e-18
1.26006e-17
-6.70734e-18
1.80569e-17
-4.77844e-16
-1.6057e-17
-1.00793e-15
-1.72629e-17
1.82169e-17
6.16121e-16
-2.90593e-17
-1.68421e-17
2.44262e-17
1.72898e-15
9.35896e-19
-1.52129e-17
3.71701e-17
6.4008e-17
3.25757e-15
-3.90003e-15
-2.4706e-19
-1.15664e-14
-4.26643e-17
-4.99197e-15
-1.84462e-14
-3.714e-15
-2.2972e-18
2.46269e-15
-4.37461e-18
1.14481e-15
-3.93158e-18
2.65936e-17
8.4518e-16
-3.24081e-19
1.9274e-17
-2.41042e-16
-9.74494e-18
-3.81915e-16
-7.69674e-16
-1.62236e-17
6.64128e-16
-6.43273e-16
-5.68028e-16
-1.44763e-18
4.16146e-18
1.96528e-21
1.99235e-17
4.72789e-16
-4.69149e-16
4.60809e-16
-9.41776e-16
2.6904e-17
4.0226e-18
9.66837e-16
-4.8402e-16
5.42043e-16
8.56962e-18
-1.85878e-17
-3.1023e-16
-5.8227e-20
-1.19396e-17
3.66463e-16
-2.32878e-16
-5.17241e-19
1.22439e-15
-1.24502e-15
3.74961e-16
9.04796e-17
2.52298e-16
-1.34757e-18
1.49738e-16
2.67017e-20
-1.40855e-16
1.35509e-16
6.93348e-17
-1.80429e-18
-9.85777e-21
6.27129e-17
-1.56586e-18
-2.98731e-17
1.36185e-20
-4.51575e-19
2.84835e-21
-8.81371e-21
-2.39826e-19
-2.04446e-19
1.15518e-20
-2.83228e-17
-3.15775e-17
1.99489e-18
5.9576e-17
-6.2572e-17
6.48562e-17
1.59669e-18
-7.00517e-20
1.39177e-16
-5.71981e-19
-1.45757e-16
-7.27911e-18
3.07163e-16
3.16744e-16
8.67055e-20
-5.88554e-18
3.6574e-16
-3.77146e-16
3.52127e-17
-1.33046e-17
-5.21242e-20
2.09209e-17
-5.52994e-16
-1.16808e-15
3.41544e-19
-6.52696e-17
1.00092e-16
1.7151e-15
2.19662e-19
2.33641e-15
2.8197e-15
-2.858e-17
8.69693e-17
5.15926e-15
3.49469e-17
4.9983e-15
2.45631e-14
2.98537e-15
6.75437e-19
1.35481e-17
-2.73682e-18
1.71348e-15
-8.98636e-19
-7.7847e-16
-3.14242e-16
1.55334e-19
3.81696e-19
3.79095e-16
3.86178e-16
-3.34078e-16
-2.04844e-17
5.72913e-16
-5.1127e-16
4.79812e-16
4.77954e-16
-2.18683e-18
2.12514e-19
-1.202e-17
-4.13799e-16
-3.79793e-16
-1.16924e-17
6.23076e-18
7.62794e-16
-3.82012e-16
-4.1845e-16
-3.81778e-16
-7.46958e-18
-9.0877e-16
-7.46832e-18
4.05998e-19
6.10977e-18
1.24303e-19
-3.04373e-16
-9.05368e-18
4.08981e-18
3.2322e-16
4.04756e-19
8.93234e-19
-3.10247e-16
-4.26962e-17
-7.73647e-17
-9.97348e-17
-1.0797e-16
-4.17029e-18
1.12098e-16
-2.08312e-16
-3.10373e-18
-4.67001e-17
1.04659e-18
-4.87692e-17
-4.62634e-17
3.44984e-19
2.93002e-19
-1.70639e-19
1.68973e-19
-4.39058e-19
-5.78035e-18
1.84699e-19
-2.25508e-17
2.36267e-17
-2.77941e-19
4.79923e-17
-5.06001e-17
2.05903e-18
4.86643e-17
9.99621e-17
-2.06799e-18
-1.05404e-16
1.08012e-16
-1.05058e-16
-1.23324e-16
-1.32008e-16
-2.56685e-16
-3.13265e-19
-2.59257e-16
-1.54547e-17
6.85965e-18
3.18726e-16
-6.02494e-18
1.17603e-17
8.00025e-16
4.48741e-16
9.61583e-16
1.83393e-17
-1.43534e-17
-9.28768e-19
-1.50513e-15
5.38014e-17
-1.17125e-16
-2.40164e-15
1.39796e-18
3.57624e-15
-1.06334e-16
3.63361e-17
6.15379e-17
-8.62956e-15
2.67637e-15
1.91114e-19
1.6206e-20
-4.72118e-18
3.33082e-17
-1.49873e-17
5.85055e-16
-6.77349e-18
-6.29072e-22
1.22053e-17
-2.99324e-16
-2.98305e-16
-2.93353e-16
-9.49481e-18
2.72143e-17
-1.53772e-17
1.59647e-18
-7.40919e-16
-1.22012e-17
-2.34337e-18
3.35687e-16
3.16356e-16
3.10404e-16
4.36184e-18
-1.48802e-17
-2.79527e-16
-3.38064e-16
3.22701e-16
-1.85321e-17
-1.27184e-19
7.45436e-16
1.21708e-17
-2.02942e-17
7.58027e-18
-7.82076e-18
2.5715e-16
2.28664e-16
-2.44791e-18
-6.01642e-16
7.60319e-16
-1.90303e-17
-3.30423e-18
-1.33482e-17
2.61903e-19
6.73534e-17
-1.40871e-18
-7.98919e-17
-3.3481e-19
1.62337e-16
-7.80374e-17
7.54677e-17
-3.6902e-17
5.13433e-19
7.27665e-17
1.54366e-20
1.75509e-17
2.94299e-19
-4.1193e-19
2.82762e-19
2.03353e-20
-2.06639e-22
1.88538e-17
-6.40198e-19
-3.51146e-17
-3.83405e-17
9.94718e-19
3.64068e-17
-2.63285e-18
-7.87969e-17
-8.35376e-17
1.66942e-16
-8.81704e-17
9.10167e-17
-8.92037e-17
2.51127e-18
1.16124e-17
-1.2804e-17
4.45171e-16
-2.10359e-19
7.86863e-18
-5.80357e-18
-2.81673e-16
-2.75181e-19
-6.60671e-16
1.55256e-17
7.45581e-16
-8.66239e-16
-9.87093e-16
2.07828e-17
1.67333e-17
-1.1553e-18
-3.22666e-15
3.67442e-17
-1.71686e-17
-2.8861e-15
-3.31e-15
2.38096e-15
1.01111e-18
-1.43679e-18
-2.32824e-15
1.71476e-16
2.83841e-19
-4.51291e-19
-9.51981e-16
9.69074e-16
1.31076e-17
2.01013e-16
-1.28055e-19
-4.40608e-18
1.15684e-16
-7.16435e-18
4.40206e-16
4.18062e-16
-3.82298e-16
8.82237e-19
3.33592e-16
-4.5996e-17
3.0825e-16
1.55576e-18
8.61603e-18
1.56006e-18
-2.57677e-16
4.48479e-18
-6.17412e-19
-6.22853e-18
2.4647e-16
-8.66941e-19
3.24623e-18
3.8915e-18
5.7971e-18
1.04551e-17
-1.17456e-17
-5.6873e-18
1.22326e-17
3.9264e-16
-1.58999e-16
-1.76575e-19
2.62739e-16
-5.45943e-16
4.63108e-16
1.03742e-19
1.09754e-19
7.01251e-21
-8.0119e-19
5.68417e-17
6.09798e-17
6.26572e-17
-6.25819e-17
5.83733e-17
-8.8067e-17
2.95079e-17
1.01388e-20
-2.88279e-17
1.00109e-21
-1.48057e-17
2.08628e-19
-6.75949e-18
-7.39902e-21
-3.37099e-18
-2.73622e-19
7.26102e-20
1.38248e-17
2.88937e-17
8.09182e-19
8.969e-19
-5.8603e-17
-5.88488e-17
2.94546e-19
3.36442e-18
-6.65032e-17
1.98378e-18
-1.98469e-18
5.50482e-18
-4.6819e-18
4.61041e-18
8.98507e-18
-1.79743e-16
-7.30601e-18
1.40739e-17
-8.45044e-18
2.32515e-16
-3.61586e-19
1.19469e-17
-2.51973e-19
-6.4136e-16
6.87862e-16
-7.27957e-16
-7.82467e-16
-4.21424e-17
2.99374e-19
1.32638e-15
1.53881e-15
-1.83199e-15
4.34264e-18
2.4287e-15
-1.48692e-15
2.72247e-17
-5.44256e-17
2.00006e-15
-3.30544e-16
-2.73399e-18
4.6097e-18
-1.54151e-17
-7.23566e-16
-3.7357e-16
-1.53582e-16
1.26881e-19
-3.98399e-18
2.5165e-18
-7.33368e-20
-3.46745e-16
-3.31065e-16
2.93209e-16
-8.53854e-19
-2.42851e-16
4.77332e-16
-4.52116e-16
1.96094e-17
9.47531e-18
2.11612e-16
1.81472e-16
-1.3722e-17
1.25918e-17
2.03843e-16
6.72639e-18
-1.35349e-17
2.38675e-16
2.46787e-16
-2.525e-16
-8.02087e-18
5.56611e-18
-9.39202e-18
1.01738e-17
-2.93272e-16
-5.31702e-18
-7.10441e-18
2.73607e-19
-6.40215e-20
-3.47949e-16
-9.5044e-20
1.1804e-18
1.06968e-18
-6.86287e-17
-4.13877e-17
-3.91496e-19
-4.86963e-17
4.73176e-17
-4.76015e-17
4.77592e-17
3.82475e-19
-6.76634e-19
4.11029e-19
-6.80735e-19
5.6717e-19
3.58578e-19
5.32656e-18
-8.71802e-20
2.69548e-18
-1.04426e-17
-3.5011e-19
1.01921e-17
-1.31497e-18
6.49601e-19
-6.79538e-19
9.02973e-17
2.65036e-18
-4.64483e-17
4.47964e-17
5.07733e-17
2.70746e-20
1.6479e-18
1.06427e-16
1.67884e-19
-1.63156e-19
1.19288e-16
8.17972e-18
1.30687e-16
2.97366e-16
-3.05862e-16
3.24538e-16
-1.16433e-17
1.22463e-17
1.39131e-17
1.93123e-18
-4.36859e-17
6.19263e-16
6.85285e-16
-7.58297e-16
3.21507e-19
-1.45254e-17
1.17136e-17
2.8689e-15
-1.66581e-15
-1.77624e-15
-1.6419e-17
2.10827e-15
-3.55393e-15
-3.44292e-15
-1.18e-18
2.16344e-16
-4.31994e-16
5.45856e-16
-8.53461e-18
5.66338e-16
1.18357e-18
-3.77763e-21
-1.10412e-19
4.21285e-18
-7.02788e-19
2.73268e-16
5.14668e-16
-2.20413e-16
3.10695e-20
-9.6716e-18
2.78828e-17
1.54304e-16
-3.61349e-16
-1.56891e-16
-1.50304e-16
1.87664e-16
3.18291e-16
-1.61061e-16
-1.67663e-16
1.69389e-16
-1.0381e-17
-1.78194e-16
-3.6726e-16
-1.06795e-17
-3.59266e-18
2.39969e-16
2.47205e-18
2.168e-18
-6.7651e-18
1.48258e-16
4.09352e-17
-4.67421e-19
-5.44142e-21
2.31211e-19
2.77574e-21
-1.25527e-18
-5.89959e-19
4.88132e-17
1.29681e-18
-1.10411e-18
3.67712e-17
-3.82921e-17
3.79713e-17
-5.50222e-19
-2.0209e-21
5.62948e-19
-1.73206e-17
-4.14089e-21
-8.74559e-21
8.03633e-18
-1.33143e-19
-1.83225e-19
4.06188e-18
6.3586e-20
-1.92884e-21
-1.63794e-17
7.058e-19
-5.22819e-19
1.02822e-18
-3.64125e-17
3.31073e-17
2.3068e-18
-3.67674e-17
-3.67546e-17
1.21298e-18
1.08427e-18
-2.89287e-18
2.66945e-18
-2.71867e-18
-1.16479e-17
2.93997e-18
-1.04327e-16
-1.32103e-17
2.44932e-16
-2.68195e-16
4.19121e-19
-3.47181e-20
1.02162e-17
-3.81066e-16
2.12398e-17
-3.24712e-17