/*--------------------------------*- C++ -*----------------------------------*\
| =========                 |                                                 |
| \\      /  F ield         | OpenFOAM: The Open Source CFD Toolbox           |
|  \\    /   O peration     | Version:  2006                                  |
|   \\  /    A nd           | Website:  www.openfoam.com                      |
|    \\/     M anipulation  |                                                 |
\*---------------------------------------------------------------------------*/
FoamFile
{
    version     2.0;
    format      ascii;
    class       volScalarField;
    location    "20000";
    object      I1_23;
}
// * * * * * * * * * * * * * * * * * * * * * * * * * * * * * * * * * * * * * //

dimensions      [0 0 0 0 0 0 0];


internalField   nonuniform List<scalar> 
14751
(
-0.00997369
0.0450794
-0.0353991
-0.103124
-0.222363
-1.08182
-38.3641
-9.09364
-0.970382
-0.434415
-0.223091
-0.1417
-0.0928257
-0.0628944
-0.0452925
-0.0319132
-0.0234742
-0.0166173
-0.0121453
-0.00853298
-0.00610524
-0.00412765
-0.00283762
-0.00184265
-0.00121132
-0.000742359
-0.000438009
-0.000231013
-0.000103513
-3.18967e-05
-2.41717e-06
-4.28749e-06
-3.01103e-05
-7.46529e-05
-0.00013731
-0.00021248
-0.000308961
-0.000418645
-0.000557664
-0.000773505
-0.00102822
-0.00134973
-0.00175053
-0.00241702
-0.0033686
-0.00555904
-0.00937745
-0.0214405
-0.0707293
-3.14975
-0.169055
-0.0354703
-0.0152236
-0.00891588
-0.00580256
-0.00441079
-0.0033562
-0.0028829
-0.00235038
-0.00204034
-0.00176951
-0.00156779
-0.0014922
-0.00151004
-0.00140027
-0.00131682
-0.00125389
-0.00116378
-0.00108952
-0.00100328
-0.000948137
-0.000881718
-0.000814367
-0.00075409
-0.000678282
-0.000583528
-0.000548789
-0.000423906
-0.000395263
-0.000249315
-0.00021986
-0.000117645
-6.98113e-05
-1.50097e-05
2.45696e-05
3.86994e-05
4.03855e-05
2.69472e-05
7.28532e-06
6.51413e-07
3.71639e-05
0.000157523
0.000556173
0.000954358
0.00259895
0.00407641
0.0110421
0.00154294
0.0358751
-0.020686
0.0866464
-0.0869079
0.289313
-0.0476892
-0.0127132
0.00193934
0.000470176
0.00233094
0.00221239
0.00237813
0.00217271
0.00203903
0.00189484
0.00164728
0.00153454
0.00128164
0.00114925
0.000944746
0.000810995
0.000640041
0.000530615
0.000396052
0.00031478
0.000224237
0.000161339
0.000104985
6.31844e-05
3.14503e-05
1.07571e-05
7.41727e-07
1.64806e-06
1.39329e-05
3.86993e-05
7.53178e-05
0.00012972
0.000195999
0.00028998
0.000393296
0.00053839
0.000735452
0.000897098
0.00126744
0.00144641
0.00211981
0.00259048
0.0037945
0.00331346
-0.0115669
-0.125911
-0.0208249
-0.0114107
-0.00734685
-0.00583261
-0.00454203
-0.0039605
-0.00334603
-0.00306179
-0.00260345
-0.00251048
-0.0021654
-0.00205294
-0.00184581
-0.00167679
-0.00154887
-0.00140935
-0.00131529
-0.00116552
-0.00108448
-0.000970587
-0.000896151
-0.000810459
-0.000733901
-0.000672335
-0.000610705
-0.000511888
-0.000506763
-0.000385449
-0.00039809
-0.000292507
-0.000296404
-0.000220954
-0.000195225
-0.000154271
-0.000112682
-7.92931e-05
-4.59358e-05
-2.00027e-05
-4.27097e-06
-4.60327e-08
-1.22392e-05
-4.51862e-05
-7.47113e-05
-0.000246995
-0.000171118
-0.000672722
8.33926e-05
-0.00388599
0.0129559
-0.124798
3.91816
-7.39273
0.210398
0.0827247
0.0421405
0.0372344
0.0243572
0.0201414
0.0155837
0.0130116
0.0106319
0.00887834
0.00741702
0.00595652
0.00510797
0.00396658
0.00338905
0.00262835
0.00218615
0.0016879
0.00143013
0.000997097
0.000793969
0.000524879
0.000367111
0.000223148
0.000127467
5.83376e-05
1.85355e-05
1.13348e-06
2.34984e-06
1.80506e-05
4.47766e-05
6.84784e-05
0.000116234
0.000111924
0.000133198
6.76758e-05
1.0474e-05
-5.2772e-05
-0.000865745
-0.00105928
-0.00431718
-0.00631302
-0.0200033
-0.0629401
-1.3153
-0.3679
-0.0700957
-0.0255508
-0.0161903
-0.00945994
-0.00676055
-0.00408163
-0.00344409
-0.00205578
-0.00177909
-0.000474195
-0.000886345
6.88356e-05
-7.8514e-05
0.000300459
0.000651436
0.00080044
0.000968065
0.000904903
0.00119224
0.0010841
0.00124375
0.00123228
0.00126192
0.00123946
0.00111293
0.000984899
0.00106418
0.000683347
0.000886161
0.000449453
0.000620001
0.000261146
0.000324646
0.000156311
9.83031e-05
5.51566e-05
5.50632e-06
-5.12689e-06
-7.52744e-06
-3.95343e-06
4.5881e-08
-1.96109e-05
-9.86412e-05
-0.000169088
-0.00088211
-0.00077675
-0.00329608
-0.00106266
-0.0172442
0.0850841
-1.07704
4.70164
-0.345752
0.155824
0.0714543
0.0391384
0.0456113
0.0284356
0.0265166
0.0201397
0.0177083
0.0146024
0.0121746
0.0104199
0.00837442
0.0079491
0.00588782
0.00525994
0.0040557
0.00371793
0.00335661
0.00332197
0.00223323
0.0018414
0.00115439
0.000816379
0.00046059
0.000253631
0.000107685
3.08142e-05
1.5681e-06
2.34704e-06
9.33224e-06
-1.85708e-06
-0.000127056
-0.000281906
-0.000848502
-0.00155569
-0.00323648
-0.00568077
-0.0102678
-0.0218754
-0.0353118
-0.102838
-0.263408
-1.83993
-8.7134
-0.733923
-0.245647
-0.133607
-0.0773307
-0.0564888
-0.0400809
-0.0320102
-0.0237136
-0.019787
-0.0147392
-0.0134604
-0.00905455
-0.00963671
-0.00645037
-0.00598629
-0.00463562
-0.00338505
-0.00250104
-0.00168564
-0.00152321
-0.000262985
-8.05859e-05
0.00161705
0.00293813
0.00372213
0.00382316
0.00358611
0.00331615
0.00366905
0.00256615
0.00333737
0.00195451
0.00256636
0.00140451
0.00161172
0.00105635
0.000829568
0.000565739
0.000293746
0.000175112
6.89008e-05
8.34301e-06
-8.50472e-08
1.05681e-05
-4.86721e-05
0.000265534
-0.00139172
0.000713606
-0.00555426
0.00839426
-0.0646601
0.756444
-32.0621
0.95184
-0.135859
0.12197
0.0655561
0.0397156
0.051224
0.0330831
0.0319473
0.0263069
0.0232235
0.0186575
0.0160089
0.0139906
0.0111673
0.0103476
0.00737022
0.00716936
0.00552525
0.00432537
0.000154814
-0.00177606
-0.0025538
-0.00191299
-0.00178296
-0.00133781
-0.00106535
-0.000684269
-0.000406503
-0.000157018
-1.08337e-05
-2.73793e-05
-0.000240268
-0.000770895
-0.00169056
-0.00283869
-0.00521769
-0.00734989
-0.0119177
-0.0149671
-0.021517
-0.0269782
-0.0166289
-0.252861
4.59328
0.348559
0.22421
0.140188
0.0978556
0.0822182
0.0781419
0.0645776
0.0542429
0.0448253
0.0460179
0.0407743
0.0408091
0.035566
0.0317051
0.0259024
0.0273215
0.0235424
0.0226272
0.0215551
0.0178826
0.0155689
0.0149617
0.0144849
0.010656
0.00545721
1.55994e-05
-0.0019684
-0.00270763
-0.00279719
-0.00218466
-0.00104878
-0.00267434
-0.00109756
-0.00274729
-0.000963781
-0.00185499
-0.00107364
-0.00114762
-0.000793297
-0.00055329
-0.00047666
-0.000271703
-0.000107249
-2.96079e-05
-6.39884e-07
-0.000100241
-0.000450662
-0.000313541
-0.00427834
-0.000188602
-0.0156139
0.0247668
-0.247439
16.9671
-2.20633
0.25705
-0.150262
0.0112277
-0.0124558
-0.0240728
-0.0059985
-0.0170783
-0.0132057
-0.0141451
-0.0130723
-0.0146194
-0.0144847
-0.0142161
-0.0153099
-0.0137297
-0.0144
-0.0129419
-0.0131351
-0.0113102
-0.010028
-0.00783709
-0.00701252
-0.00522644
-0.00434594
-0.00299753
-0.00208342
-0.00133181
-0.000731871
-0.000237358
-1.33021e-05
-3.88267e-05
-0.000338918
-0.000933993
-0.00203223
-0.00298978
-0.00342415
-0.00365866
-0.0069282
0.00130116
0.0668366
0.523135
8.35721
0.695777
0.32731
0.236594
0.177287
0.11606
0.109769
0.0939438
0.0800414
0.0762361
0.0676088
0.0591418
0.0570558
0.0537704
0.0525138
0.0467971
0.0432758
0.0399998
0.0397589
0.0346678
0.0334631
0.0314067
0.0291912
0.0267305
0.023786
0.0238823
0.021395
0.0197534
0.0182626
0.0167795
0.0151898
0.012852
0.0113743
0.0104071
0.00768613
0.00818816
0.00522429
0.00594952
0.00386105
0.00367461
0.00260424
0.00187955
0.00142553
0.000843678
0.000467526
0.00021239
3.2713e-05
1.32704e-06
7.74196e-05
0.000188227
0.00156883
-0.00280976
0.00932007
-0.0150428
0.109881
-1.5584
2.26971
-0.465486
0.0876061
-0.0813364
-0.00565223
-0.0167427
-0.0231528
-0.0103967
-0.0153626
-0.0121862
-0.0119631
-0.00978205
-0.00941769
-0.0081815
-0.00677971
-0.00647182
-0.00486017
-0.00507873
-0.0035399
-0.00332888
-0.00192421
-7.95758e-05
0.00154233
0.00114951
0.00148499
0.00103534
0.000898729
0.000688733
0.000526258
0.000257524
0.000106299
8.86804e-06
2.44195e-05
0.00025595
0.000821578
0.00195868
0.00461028
0.00893677
0.0257384
0.0591652
0.225066
2.85079
0.437256
0.148215
0.0668275
0.0359384
0.0211395
0.0206053
0.0115554
0.0087742
0.00850957
0.0069527
0.0042764
0.00324333
0.00305557
0.00302896
0.000468438
0.00118538
0.00166711
0.00102737
-0.000589708
0.000571846
0.000389071
0.000611414
0.000333996
-0.000318192
-5.22783e-05
0.000422287
0.000261331
9.90675e-05
0.00258572
0.0046254
0.00487128
0.00467407
0.00465126
0.00425419
0.00419899
0.003175
0.0040675
0.00258793
0.00319123
0.00214945
0.00239708
0.00155543
0.00129192
0.00103136
0.000618106
0.000374673
0.000167261
3.26782e-05
2.0467e-06
7.54995e-05
0.000153085
0.00185453
-0.00419077
0.012541
-0.0478278
0.663664
-4.17407
0.368402
-0.134432
0.0513737
-0.0234063
0.011635
0.00667888
0.00307951
0.00806173
0.00479317
0.00702157
0.00646349
0.006526
0.00621807
0.00650653
0.00648391
0.00583467
0.00639602
0.00590943
0.00577605
0.0051164
0.00494886
0.00349678
0.00288522
0.00218191
0.00201066
0.00155806
0.0013313
0.000895746
0.000584214
0.000330854
0.00012986
1.27821e-05
2.60941e-05
0.000222807
0.000814796
0.00219407
0.00465782
0.0119697
0.0373082
0.180054
0.310392
0.0477399
0.01049
0.0111009
0.00212456
0.000279409
-0.000544151
-0.00187756
-0.00276324
-0.00383609
-0.00394621
-0.00354744
-0.00389864
-0.00295596
-0.00392893
-0.00408087
-0.00416528
-0.004435
-0.00420855
-0.00349577
-0.00392115
-0.00371789
-0.00380222
-0.00375058
-0.00365315
-0.00330423
-0.00323204
-0.0030085
-0.00280623
-0.00298333
-0.00312442
-0.00350757
-0.00354897
-0.00332617
-0.00311333
-0.00271896
-0.00211173
-0.00248404
-0.00158821
-0.00215233
-0.00142961
-0.00173392
-0.0011546
-0.00111352
-0.0008203
-0.00059812
-0.000502305
-0.000314381
-0.000142928
-4.23309e-05
-2.5448e-06
-0.000159841
-0.000857488
-0.0011453
-0.0147355
-0.0077455
-0.553485
0.13324
-0.281025
0.12541
-0.0585602
0.0277325
-0.0115131
0.00664126
0.00282797
0.000723321
0.00466567
0.00255726
0.00351996
0.00269327
0.0030598
0.00273749
0.00257796
0.00246389
0.00183495
0.0020238
0.00151081
0.00173936
0.00129257
0.00130144
0.000813099
0.000710905
0.000464479
0.000586347
0.000222997
0.000299265
0.000247591
0.000138208
4.6517e-05
2.2393e-05
3.32773e-06
5.37033e-06
2.6905e-05
6.79171e-05
0.000279338
0.00224186
0.00524159
-0.0234941
-0.010456
0.00309271
0.000244872
-0.00242929
-0.00105173
-0.00122856
-3.69868e-05
-0.00129026
-0.00173001
-0.00114546
-0.000890294
-0.00172004
-0.00149292
-0.00102469
-0.000607136
-0.000861881
-0.00125801
-0.00114281
-0.00077805
-0.00146215
-0.000919155
-0.000968382
-0.00102053
-0.000832564
-0.000820961
-0.000686917
-0.000792855
-0.000834627
-0.000781038
-0.000738165
-0.000629965
-0.000519289
-0.000624508
-0.000639309
-0.000706996
-0.000609327
-0.000626501
-0.000501142
-0.000598698
-0.000228205
-0.000805392
-0.00031795
-0.000573397
-0.000194584
-0.00038128
-0.000299356
-0.00022254
-0.000213406
-9.95037e-05
-4.56903e-05
-2.4884e-05
-6.8329e-07
-6.57356e-05
-0.000585987
0.000663945
-0.0213971
0.132658
-0.081493
0.0369746
-0.0679705
0.0564808
-0.0320002
0.0161803
-0.00718308
0.00395427
0.0016317
-0.000120862
0.00203299
0.000526279
0.00123605
0.000965244
0.00112687
0.000758291
0.000710361
0.000891305
0.000337008
0.000590571
0.000299889
0.000412188
0.000220813
0.000397548
0.000233349
0.00024716
-3.75941e-05
0.000254847
6.07726e-05
7.62629e-05
2.90102e-05
7.98937e-06
2.65971e-05
4.121e-06
-4.55916e-07
-1.67445e-06
1.37809e-05
9.454e-05
-0.000432073
-0.000584534
-0.0101716
-0.00423352
-0.00354862
-0.000147252
0.00033615
-0.00201918
-0.000938445
-0.000327146
-0.000736869
-0.000918198
-9.43886e-05
-0.00040604
-0.000741836
-0.000697292
-0.000459865
-0.000451591
-0.000434129
-0.000442338
-0.000198985
-0.000595094
-0.0003994
-0.000217396
-0.000280711
-0.000533543
-0.000387557
-0.000169403
-0.000140029
-0.000291284
-0.000346779
-0.00028816
-0.000296288
-0.000237898
-0.000181688
-0.000197486
-0.000208342
-0.000234991
-0.000189562
-0.000123586
-0.000158029
-1.05594e-05
-0.00023935
4.18431e-05
-0.000354881
0.000119293
-0.000221609
1.98496e-05
-4.46781e-05
-0.000103487
-8.24576e-05
-3.2119e-05
-8.77969e-06
-8.41187e-06
-9.96576e-06
1.36788e-08
-2.36645e-05
-0.000324341
0.00590457
-0.083937
0.0281629
-0.00909247
0.0152253
-0.0275312
0.0304598
-0.0203526
0.0108236
-0.0051381
0.00254127
0.00100324
-0.000304116
0.00128042
0.000119011
0.000716396
0.000339052
0.000463857
0.000432313
0.000244477
0.000387181
0.000191173
0.00028151
0.000143344
0.000333668
4.1598e-06
5.03483e-05
-1.18852e-05
0.000190901
-5.59249e-05
0.000108107
4.94449e-05
-4.58952e-06
-4.42697e-06
2.10929e-05
7.87406e-06
4.92292e-06
1.41924e-07
-4.26408e-09
8.74874e-06
-6.75183e-08
-0.00130848
-0.00381678
-0.000548992
-0.00026164
-9.68056e-05
-0.000232405
-0.000412436
-0.000457894
-0.000655487
-0.000689393
-0.00026569
-0.00016828
-0.000151738
-0.000329685
-0.000112098
-0.000277185
-0.000207581
-0.000203833
-0.00013065
-0.000272145
-0.000389083
-0.000322482
-0.000207534
-0.000169303
-0.000154992
-0.000274361
-0.000136791
-0.000123351
-2.67846e-05
-0.000212141
-0.000234441
-6.70273e-05
-2.95375e-05
-0.000225344
-0.000274558
-8.64767e-06
-3.79254e-05
-9.88366e-05
-3.6797e-05
-1.33897e-05
-0.000134134
-1.65597e-05
-0.000166788
8.56609e-05
-0.000228078
7.4995e-05
-0.000144923
4.76579e-05
-5.8018e-05
-3.78346e-05
1.27683e-05
-4.36101e-06
-1.20394e-05
2.89345e-06
-3.82378e-06
-3.12892e-06
4.3258e-06
-0.000666758
0.0235472
-0.0209943
0.00687612
-0.00246366
0.00756773
-0.0147452
0.0192613
-0.0144971
0.00787998
-0.00376886
0.00166617
0.000523053
-0.000295247
0.00108532
-2.74026e-05
0.00041232
0.000387173
0.000327084
9.69393e-05
0.000208066
0.000261636
-4.96735e-05
0.000237001
-2.75565e-05
0.000170589
0.000112889
0.000115802
-6.75978e-05
7.48384e-05
-5.06504e-05
4.58108e-05
-5.35152e-05
6.20232e-07
1.11463e-05
9.67624e-06
-4.13081e-06
6.42143e-06
1.55347e-06
4.99417e-06
3.9303e-05
-0.000121794
-0.00232213
0.000181878
-0.000751251
6.63663e-05
0.000140533
-0.000355919
-0.000132368
-0.000162906
-0.000180006
-0.00030279
-0.000346315
-0.000136731
0.000105547
-0.000286202
-0.000262139
-0.000143958
-1.39999e-05
-4.93736e-05
-0.000157465
-7.19443e-05
-5.44357e-05
-0.000148743
-2.9316e-05
-0.000170362
-0.000127068
-0.0001312
-8.28485e-05
-6.00251e-05
-7.55925e-05
-7.28369e-05
-0.000145351
-0.000103258
-8.17411e-05
-1.50215e-05
-1.6231e-05
-9.8375e-05
-4.8839e-05
3.61881e-06
2.35103e-05
-0.000112143
-5.26907e-05
8.08484e-05
-0.000166163
0.000171571
-0.000178481
0.000101598
-8.85027e-05
9.06152e-05
-2.46303e-05
-2.40845e-05
-1.73062e-05
2.27922e-07
2.33732e-05
9.15433e-06
-2.54187e-06
-1.08783e-05
1.58595e-06
-0.0015886
0.00804249
-0.00483282
0.00301485
-0.00120251
0.00470164
-0.00965262
0.0133243
-0.0111602
0.00613682
-0.00309143
0.00133706
0.000443879
-0.000449508
0.000692631
-3.05253e-05
0.000223947
6.54602e-05
0.000174545
0.000237389
0.000148976
4.63395e-05
-2.1525e-05
0.000214871
-5.2495e-05
0.000145424
3.75556e-05
7.3709e-05
2.29106e-06
5.56178e-05
-0.00011219
4.93455e-05
-8.33064e-05
-2.86681e-05
1.93697e-05
-3.58895e-06
-1.04384e-05
-3.27008e-06
-1.09224e-06
-1.05631e-05
-5.00878e-05
-0.000371334
-0.000750131
-0.000285841
6.04167e-05
-0.000363438
-0.000281193
-5.22976e-05
-3.48131e-06
5.04828e-05
-7.39401e-05
-0.000112804
-4.12173e-07
-0.000326231
-0.000232463
-4.16807e-05
0.000114856
4.07753e-05
-8.24815e-05
-0.000176508
-0.000182444
-6.24268e-05
-2.05347e-05
-6.51372e-05
8.80491e-05
-0.000122154
-9.571e-05
-3.75631e-05
-3.34271e-05
2.65029e-05
1.23646e-05
-3.63367e-05
-5.15268e-05
-0.000142415
3.88158e-06
0.000136487
-0.000115845
-6.22479e-05
1.05175e-05
-5.06431e-05
2.6829e-05
3.96828e-05
-3.13398e-05
3.37169e-05
-5.29521e-05
0.00017105
-0.000117143
7.46911e-05
-0.000174714
0.00012467
1.23025e-05
9.01645e-06
4.76457e-05
-1.36448e-05
1.414e-05
7.21822e-06
-3.76966e-06
-2.90877e-05
-5.66584e-05
-0.00142701
0.00287255
-0.00165258
0.00154471
-0.00080205
0.00317122
-0.00690262
0.0100753
-0.00905463
0.00501907
-0.00258841
0.00105535
0.00012347
-0.00039058
0.000666222
-4.53484e-05
9.39212e-05
-8.0049e-07
0.000146266
3.12683e-05
5.74983e-05
7.82511e-05
-6.4284e-05
0.0002092
-8.77327e-05
4.03088e-05
-2.84291e-05
-4.23047e-06
-0.000126228
2.19108e-05
-4.26323e-05
0.000108436
4.28178e-07
-2.96217e-05
-9.30419e-05
-3.86391e-06
1.24993e-05
6.95513e-06
-5.52323e-06
2.58089e-05
-7.53191e-05
-0.00030552
-9.9761e-05
7.73575e-06
-7.7699e-07
8.46797e-05
-5.06577e-05
-0.00015985
-0.000222274
-0.000134436
0.000173089
-8.55526e-06
-0.000158987
-0.000103519
1.24377e-06
-5.62788e-05
9.61024e-06
3.25959e-05
-1.5726e-05
-4.6892e-05
-1.06533e-05
-1.26443e-05
-6.44426e-05
-0.000153847
-1.40825e-05
4.22847e-05
5.16096e-05
-0.000107797
-8.65061e-05
-4.18343e-05
2.31902e-05
1.70859e-05
4.92928e-06
2.15744e-05
-2.98881e-05
-1.67706e-05
-2.05333e-06
4.5361e-05
-3.26027e-05
-2.16364e-05
8.09751e-05
-1.4218e-06
-2.87103e-05
0.000135896
-0.000111707
0.000156863
-5.49963e-05
7.4619e-05
-0.000100083
0.00014675
-5.69544e-05
-4.52855e-05
5.06086e-05
3.615e-05
-5.0957e-06
-1.3612e-06
-1.58849e-06
-7.20911e-05
-8.41879e-07
-0.000126323
0.00108025
-0.00117126
0.00110055
-0.000488073
0.00245044
-0.00531769
0.00805477
-0.00762753
0.00439175
-0.00225554
0.000835026
8.03837e-05
-0.000253544
0.000398593
-0.000215488
0.000103361
2.56498e-05
0.000207108
-5.96679e-05
-0.000141597
6.94844e-05
-6.35031e-05
0.000186833
2.44605e-05
2.98483e-05
-0.000167072
2.04836e-05
-0.000102344
4.43776e-05
-0.000105095
-1.9202e-05
-4.65438e-05
5.08022e-05
2.80714e-05
-5.78805e-06
-2.25071e-05
-6.52408e-06
1.64567e-05
1.36568e-05
1.17675e-06
1.09201e-05
-4.33864e-05
3.02849e-06
-0.000111444
-4.26375e-06
6.97106e-05
-0.000160809
-6.29783e-06
-5.87992e-06
-7.47171e-05
5.1429e-06
3.33779e-05
-0.000169593
4.88477e-06
1.85904e-05
-4.65387e-05
2.23478e-05
3.56896e-05
-8.14875e-05
-0.000104261
2.56542e-05
1.42706e-05
-0.000111751
3.24131e-05
1.74848e-05
4.27853e-05
1.90017e-05
-2.70376e-05
-7.09869e-05
0.000111852
3.8123e-05
-4.67236e-05
-1.03422e-05
4.54893e-05
9.31149e-05
2.69244e-05
-4.67598e-05
-9.18087e-06
9.92207e-05
6.16157e-06
-7.30049e-05
-5.54631e-05
0.000158152
-0.000104129
5.29289e-05
-1.30734e-05
0.000194189
-8.43271e-05
0.000119946
-4.572e-05
-7.13083e-05
1.72634e-05
2.21799e-05
3.76065e-05
3.73005e-05
-2.60418e-07
-0.000227319
1.58323e-06
-0.000115481
0.000614901
-0.000702828
0.000675559
-0.000434162
0.00181871
-0.00436264
0.00682249
-0.00682168
0.00371048
-0.00195995
0.000883052
0.000141249
-0.00031689
0.000309022
-0.000206539
0.000131906
-3.23053e-05
3.808e-05
8.10162e-06
-8.26622e-05
-5.08256e-05
-5.3386e-05
0.000136058
-2.34134e-05
8.2371e-05
-0.000172058
-0.000100954
4.35372e-05
0.000127893
-0.000133955
-2.97413e-05
-4.0631e-06
-1.19594e-05
-0.000114415
4.50302e-05
3.31069e-05
-3.60429e-06
6.5496e-06
-2.23261e-05
4.28364e-06
4.31765e-06
-5.56366e-05
3.81262e-05
-2.50505e-05
5.34037e-06
-2.63587e-05
-0.000178257
-5.58986e-05
8.09565e-05
0.000118456
-6.35577e-05
2.05567e-05
4.81018e-05
-7.63851e-05
-1.48486e-05
-1.64264e-05
-2.53655e-05
9.71653e-05
2.15498e-06
-0.000136319
-5.79034e-05
7.15319e-05
4.1024e-05
5.40016e-05
-1.49303e-05
-7.59543e-05
-9.52067e-05
8.06243e-05
5.72503e-05
-4.30137e-05
-1.95218e-05
6.89043e-05
-4.11045e-05
-3.60628e-05
0.000139717
4.66149e-05
-7.20894e-05
8.58666e-05
-1.41256e-05
1.85214e-05
9.04943e-05
7.22522e-06
1.73531e-05
-0.000110141
0.000136499
-2.29294e-05
0.000204243
-0.000122011
3.78099e-05
2.17363e-05
-2.24799e-05
4.28689e-05
1.78758e-05
1.48127e-05
4.12724e-05
1.97899e-06
-0.000238415
1.61362e-05
-0.000124801
0.000396564
-0.000365786
0.00053594
-0.000397869
0.00144241
-0.00373684
0.00606314
-0.00603802
0.00342237
-0.00185264
0.000661938
8.94996e-05
-0.000248712
0.000267881
-0.000211791
3.1876e-05
-7.89786e-06
6.36501e-05
6.03007e-05
2.86029e-05
1.67977e-05
-0.000117811
6.0942e-05
-8.46231e-05
-0.000113581
-5.14494e-05
8.27681e-05
-3.79083e-05
-1.9288e-06
-0.000106568
2.12023e-05
-0.000138888
1.58459e-05
-3.71667e-05
4.82043e-05
1.26767e-05
6.63999e-06
4.18451e-05
-9.11725e-05
-1.67737e-05
-4.02489e-05
-4.51986e-05
5.72871e-05
2.01731e-05
2.55547e-05
-5.6742e-05
-0.00011462
4.56288e-05
5.82037e-05
-2.38848e-05
4.03912e-06
0.000111921
-0.000114772
-2.95502e-05
0.000107643
-8.1701e-05
-9.8362e-05
5.81717e-05
6.72614e-05
-6.06074e-05
-5.86606e-05
4.13249e-05
6.21623e-05
5.16232e-05
-6.42849e-05
1.25283e-05
0.000103042
4.22148e-05
-0.000130852
-2.75059e-05
2.39629e-05
6.48336e-05
0.000103705
-4.66071e-05
-8.83186e-05
7.4993e-05
0.000124173
-8.45781e-05
-2.47951e-05
8.56799e-05
-4.22733e-06
1.4193e-05
-2.1963e-06
-4.37686e-05
0.000200131
-0.000165291
6.69232e-05
-1.86238e-05
0.000128394
-7.48181e-05
-6.08178e-05
0.000113782
6.94876e-05
-6.19454e-05
-6.98969e-06
-6.27729e-06
-8.64296e-05
-4.73428e-06
-4.26609e-05
0.000244409
-0.000341624
0.000398063
-0.000341378
0.001244
-0.00319877
0.00541572
-0.00541343
0.00305265
-0.00184886
0.000666733
0.000140724
-0.000265424
0.000223632
-8.69175e-05
8.05418e-05
-1.69726e-05
6.04959e-05
-6.75366e-05
-7.29375e-05
-2.65483e-05
-8.27706e-05
0.000172534
3.34758e-05
-4.24279e-05
-0.000151432
3.72102e-05
7.21476e-06
-9.12571e-06
-7.78925e-05
-4.66913e-06
-0.000178729
4.39327e-05
3.76863e-05
-3.53052e-05
-1.87236e-05
8.48256e-06
1.98356e-05
-2.13378e-06
-7.08229e-06
3.92457e-06
-2.11086e-06
3.06726e-05
-7.4899e-05
-4.2021e-05
4.15679e-05
7.93524e-06
2.54796e-05
5.46474e-05
-4.85827e-06
-8.47787e-05
5.95109e-05
5.38502e-05
-6.05673e-05
-8.57298e-05
3.13074e-05
7.94264e-05
-6.87698e-05
-4.71881e-05
6.13593e-05
-8.94079e-05
8.76537e-05
0.000104748
-0.00011479
-8.56481e-05
5.28516e-05
3.41093e-05
4.88467e-05
4.30814e-05
-3.13935e-05
3.36457e-05
2.28087e-05
-5.21801e-05
-1.58166e-05
6.42853e-05
4.0637e-05
2.71758e-05
2.24368e-06
2.18762e-05
9.14332e-05
1.07054e-05
-9.81782e-05
3.77862e-05
-8.69859e-05
7.5621e-05
6.39662e-06
1.10197e-05
-0.000174586
6.3215e-05
0.00010638
5.92039e-05
-8.50386e-06
-5.42227e-05
-6.65618e-05
9.30891e-05
-1.02534e-05
-4.15192e-05
-2.3129e-05
-2.57129e-05
0.000111052
-0.000294742
0.000334307
-0.000275389
0.00122797
-0.00289569
0.0049402
-0.00489753
0.0028695
-0.00171739
0.000675612
-3.17459e-06
-0.000252039
0.000269309
-0.00019414
6.55426e-05
-3.61887e-05
3.46218e-05
1.7683e-05
-4.56454e-05
-1.35647e-05
-7.81686e-05
8.05825e-05
-4.76618e-05
3.54146e-05
-4.7748e-05
3.17485e-05
-2.01144e-05
-9.89753e-06
-0.000112107
0.000130384
-0.000104742
-0.000138242
-4.30493e-06
8.71816e-05
4.81272e-06
3.51958e-05
-2.53945e-05
2.47877e-05
4.40075e-05
1.11507e-05
4.04992e-05
-9.96974e-06
-3.55185e-06
1.77283e-05
-3.69554e-05
-7.91505e-05
-6.80728e-05
-3.30579e-05
6.49162e-05
3.65093e-05
-2.79416e-05
5.72338e-05
7.36043e-05
-5.7781e-05
-2.00125e-05
1.41461e-05
1.69924e-05
-1.73584e-05
-5.37664e-05
-2.12899e-05
0.000125306
4.01048e-05
-8.13182e-05
-3.21503e-05
7.27946e-05
5.77795e-05
1.371e-05
7.40842e-06
-1.69397e-05
2.24566e-05
4.06024e-05
-7.71799e-05
-5.83991e-05
6.54453e-05
8.48273e-05
1.92261e-05
-7.44897e-05
3.8492e-05
0.000109871
-0.000101397
-7.81796e-05
8.62939e-05
-1.07759e-05
6.48879e-05
-7.85623e-05
0.000154082
-0.000113878
0.000112924
-4.00929e-05
-5.07557e-05
8.28603e-05
-9.79654e-05
5.87769e-05
6.8927e-05
6.62227e-05
-0.000120609
-6.20614e-05
-8.67135e-06
7.89276e-05
-0.000236659
0.000264317
-0.000236207
0.00117822
-0.00271554
0.00439201
-0.00458583
0.00276257
-0.00150857
0.00056454
-5.82128e-05
-0.000294686
0.000292503
-0.000128341
-7.4369e-05
1.34625e-06
4.04402e-05
-7.89871e-05
-5.4344e-05
4.90352e-05
5.02429e-05
-5.56857e-05
-0.000215095
8.57261e-05
-9.39462e-05
-2.93381e-05
-1.53448e-05
-3.67738e-05
-5.47306e-05
9.71361e-06
1.54352e-05
1.03653e-05
-1.26813e-05
4.79057e-05
-3.22438e-05
2.82644e-05
-8.65987e-05
-2.8168e-05
3.59767e-05
-3.10087e-06
1.3523e-05
1.87893e-05
1.37477e-06
-3.55509e-06
2.35748e-05
8.60811e-05
-2.43562e-05
-0.000105396
1.34653e-05
4.54136e-05
-6.39256e-05
-6.13628e-06
2.07115e-05
-5.16669e-05
6.34676e-05
9.29364e-05
7.42899e-06
-5.94193e-05
-8.81511e-05
1.16345e-05
0.000114968
-6.34745e-05
-0.000102295
6.34884e-05
9.17655e-05
4.68933e-05
2.7782e-05
-3.82119e-05
3.94431e-05
-2.10993e-05
-7.32247e-05
2.91869e-05
7.09967e-05
-3.87924e-05
-7.70987e-05
3.34515e-05
7.76801e-07
8.12584e-05
-1.58256e-05
-9.78848e-05
5.33835e-05
6.11136e-05
1.35257e-05
6.42917e-05
-0.00016882
0.000177397
3.00386e-05
-5.06947e-05
-0.000130704
0.000116976
8.97951e-05
-7.90855e-05
7.63078e-05
5.455e-05
7.50331e-05
-9.62351e-05
-4.04062e-05
-2.68483e-06
9.50477e-05
-0.000175988
0.000174524
-0.000193413
0.00105423
-0.00246045
0.00408601
-0.00422409
0.00247987
-0.00137694
0.000508141
-8.18589e-05
-0.000121417
0.000280277
-0.000118459
-4.52675e-05
-2.40584e-05
-1.75709e-05
-0.000126683
7.39721e-05
8.57199e-06
-0.000104266
9.13414e-05
-0.000181622
2.26007e-05
0.000105303
-7.76058e-05
-4.88046e-05
3.42566e-06
-0.000104326
9.83462e-05
-0.00010658
-3.50115e-05
-5.68873e-05
7.97077e-06
1.19773e-05
3.3551e-05
-1.35007e-05
-4.62713e-05
-6.21677e-07
-2.11593e-06
-1.24207e-05
-5.98258e-05
-5.49138e-05
7.99253e-05
7.8981e-05
-9.72569e-05
3.52843e-06
4.88009e-05
-4.62567e-05
3.95158e-05
2.57603e-06
-7.04574e-05
-4.26084e-05
5.74734e-05
1.46113e-05
-9.98773e-05
0.0001048
0.00011257
-5.20044e-05
-5.35257e-05
-7.60872e-06
-6.82947e-05
5.09046e-05
3.29776e-05
3.61793e-05
2.8774e-05
-5.69049e-05
-1.91231e-05
5.99396e-05
3.86196e-05
-6.42769e-05
9.57947e-06
5.33241e-05
-4.05544e-05
-3.01725e-05
-2.22067e-05
1.45196e-07
1.0944e-05
-5.58637e-06
6.11445e-06
-1.89024e-05
7.37981e-05
3.79561e-05
2.72639e-05
-3.95754e-05
0.000126832
-6.30984e-05
-6.02639e-05
-7.46884e-06
0.000106022
-7.47261e-05
-5.26407e-05
5.78452e-05
2.59937e-05
4.29228e-05
2.68618e-05
2.2432e-05
-3.13398e-07
6.74251e-05
-0.000139906
0.000150104
-0.000185504
0.000974775
-0.00232008
0.00387855
-0.00397758
0.00223612
-0.0011815
0.000532387
-6.57059e-05
-8.10349e-05
8.87192e-05
-9.9131e-05
0.000144081
-2.86798e-05
-7.58655e-05
-7.01971e-05
7.80325e-05
4.36057e-05
-0.000118236
-4.06932e-05
1.83096e-05
-5.44686e-05
-0.000148008
8.31928e-05
9.97015e-05
0.000117899
-8.5801e-05
-2.7995e-05
-0.000107184
2.40502e-05
6.36863e-05
-3.53455e-05
-9.25139e-06
-2.04778e-05
-4.24286e-06
-4.20833e-05
-1.32385e-05
3.15056e-06
4.83405e-06
-1.74152e-05
1.60747e-05
1.24711e-05
-3.96779e-05
-4.98652e-05
1.57759e-05
5.49613e-05
-2.38759e-05
-2.42925e-05
-1.17777e-07
1.12701e-05
3.32108e-05
3.44714e-05
4.3524e-05
-0.000100232
-2.18038e-05
1.80928e-05
-8.40643e-05
1.15495e-05
7.73479e-05
6.22983e-05
6.351e-06
-2.54147e-05
-6.89971e-06
-7.02495e-05
3.77024e-05
6.57177e-05
-7.5535e-05
-6.58544e-05
3.37797e-05
6.22309e-05
-4.1739e-05
-6.25572e-06
0.000114879
-3.8832e-06
-6.17002e-05
-1.72845e-05
2.49534e-05
-3.82258e-05
-1.43576e-05
0.000133373
-6.84907e-05
1.34781e-05
3.34296e-05
-3.44457e-06
-8.58424e-05
0.000121931
-5.84792e-05
-5.66122e-05
5.04016e-05
7.62257e-05
4.12589e-06
-1.282e-05
3.78526e-05
-4.64656e-05
-1.26663e-05
7.02496e-06
4.00956e-05
-0.000113123
0.000161823
-0.000151331
0.000814365
-0.00210241
0.00362073
-0.00367265
0.00207807
-0.00119812
0.000456265
-9.75187e-06
-4.18344e-05
0.000146651
-0.000139574
0.000114325
-4.05238e-05
-1.9047e-05
1.71694e-05
3.20245e-05
-5.65179e-05
-0.000170254
8.28903e-06
2.16635e-05
2.42927e-05
-0.000139909
4.5473e-08
8.88404e-05
8.79419e-05
-0.000142125
-4.54545e-05
1.73379e-05
1.36709e-05
-4.50455e-05
1.56494e-05
-9.59512e-07
4.32919e-05
3.89576e-06
6.45134e-06
2.54396e-05
3.04073e-07
5.14363e-06
3.75821e-05
-4.3051e-05
-4.88144e-05
2.60304e-07
2.84097e-05
4.58694e-05
-4.94303e-05
-3.92136e-05
7.32763e-05
1.26175e-05
-5.10012e-05
4.42804e-05
1.68926e-05
2.77062e-05
-7.68123e-05
-5.23974e-05
6.92674e-05
-3.55934e-05
-2.52056e-05
7.24167e-05
2.19563e-05
-5.4241e-05
-5.94277e-05
-3.56011e-06
-3.04577e-06
7.00353e-05
8.50624e-05
-4.1872e-05
3.56945e-06
1.75615e-05
2.06423e-06
-2.80182e-05
-2.71914e-05
4.84894e-05
3.52458e-05
-1.42794e-05
-7.74648e-05
-1.9506e-05
6.14589e-05
-1.89957e-05
3.36764e-05
4.3686e-06
1.85823e-05
-2.99666e-05
-1.67211e-05
-1.90932e-05
6.20517e-05
-6.9425e-05
9.74683e-05
5.37922e-05
-9.88548e-05
-4.31313e-05
3.46654e-07
4.47098e-05
-8.61659e-05
1.7494e-06
1.58001e-05
2.70839e-05
-8.93415e-05
0.000110616
-0.000151653
0.000810927
-0.00187305
0.00332334
-0.00323712
0.00189053
-0.00105415
0.000428786
-0.000129761
-8.67928e-05
0.000139837
-5.83264e-05
5.99795e-05
-7.3294e-05
3.13556e-05
8.21531e-05
-0.000116417
-2.77158e-05
-2.2769e-06
-2.25497e-05
-3.91768e-05
3.92947e-06
1.8457e-05
-5.44268e-05
-8.61468e-05
8.29777e-05
-0.000127878
3.0623e-05
3.11236e-05
-1.63105e-05
-3.86804e-05
-2.0612e-05
-3.53918e-06
-5.20237e-05
-4.10408e-05
3.40272e-05
2.42523e-05
-1.27861e-05
-9.75193e-06
-2.50808e-05
3.61771e-05
2.70207e-05
-8.57434e-06
1.80796e-05
-4.33053e-05
-1.41743e-05
3.62101e-05
3.27071e-06
1.55439e-05
-4.18674e-05
-5.22632e-05
-4.23376e-05
1.3261e-05
9.83237e-05
-7.21446e-06
-9.32611e-05
5.49518e-05
2.45566e-07
-5.1353e-05
-8.66105e-06
3.14442e-05
4.80603e-05
3.84049e-05
-1.31431e-05
-7.98216e-05
2.35861e-05
6.07858e-06
-4.7504e-05
8.91515e-05
1.50122e-05
-6.745e-05
-1.67038e-05
7.30289e-06
6.38071e-05
-2.05045e-05
2.26259e-05
5.97952e-05
-9.53562e-05
-7.30474e-05
0.000103137
-2.78738e-05
3.55781e-06
7.79631e-06
2.75123e-05
-4.68103e-05
3.83128e-05
-5.18641e-05
-2.57028e-05
1.47262e-05
-2.59284e-05
-4.94636e-06
-3.92633e-06
7.28608e-06
-0.000181417
1.58333e-05
1.97341e-05
9.75798e-06
-7.34991e-05
0.00010332
-0.000109131
0.000730402
-0.00175153
0.00303967
-0.00288957
0.00181462
-0.00103637
0.000428963
-7.63725e-05
-0.000186603
5.93216e-05
-5.6602e-05
1.50361e-05
3.01185e-05
0.000119685
-2.53067e-05
-7.60308e-05
2.31299e-06
2.07e-05
-3.63942e-05
-9.39098e-05
9.27516e-06
-9.75871e-05
9.85488e-05
9.96955e-06
-6.48524e-05
-7.67637e-05
8.48536e-05
-2.22625e-05
-8.41257e-05
-1.68625e-05
2.19905e-05
-4.20378e-06
5.97622e-05
1.18638e-05
-2.32007e-05
-7.63179e-06
2.19302e-06
-1.35278e-06
-2.87933e-06
2.07426e-05
3.50069e-05
-3.95272e-05
-5.99097e-05
1.90746e-05
2.65299e-05
6.26605e-05
3.59223e-05
-2.30648e-05
-4.41694e-05
-1.33566e-05
-3.83903e-05
-7.97152e-06
7.34518e-05
-1.48838e-05
-6.63847e-05
2.50621e-05
2.88374e-05
-3.7641e-05
-1.627e-06
4.0065e-05
-2.29097e-05
3.01144e-06
5.30433e-06