/*--------------------------------*- C++ -*----------------------------------*\
| =========                 |                                                 |
| \\      /  F ield         | OpenFOAM: The Open Source CFD Toolbox           |
|  \\    /   O peration     | Version:  2006                                  |
|   \\  /    A nd           | Website:  www.openfoam.com                      |
|    \\/     M anipulation  |                                                 |
\*---------------------------------------------------------------------------*/
FoamFile
{
    version     2.0;
    format      ascii;
    class       volScalarField;
    location    "20000";
    object      I1_24;
}
// * * * * * * * * * * * * * * * * * * * * * * * * * * * * * * * * * * * * * //

dimensions      [0 0 0 0 0 0 0];


internalField   nonuniform List<scalar> 
14751
(
5.73972e-42
1.88079e-37
3.76158e-37
1.78296e-63
-7.52316e-37
-4.70198e-38
-4.57118e-59
-6.12286e-68
4.58312e-60
1.21871e-65
1.88079e-37
-1.46937e-39
-9.40395e-38
-5.87747e-39
9.40395e-38
1.46937e-39
1.15624e-63
5.00167e-65
6.57755e-63
1.46937e-39
1.46937e-39
-5.87747e-39
5.87747e-39
-3.36041e-63
-1.46937e-39
1.46937e-39
1.98561e-79
5.89771e-64
1.44232e-66
1.83671e-40
-9.70126e-67
1.1139e-71
1.83671e-40
-7.34684e-40
-1.83671e-40
-7.34684e-40
-7.34684e-40
2.86986e-42
-7.07566e-68
1.33243e-68
4.59177e-41
2.35099e-38
9.37113e-76
8.09384e-69
9.18355e-41
2.93874e-39
-9.07306e-65
-4.4081e-39
-1.43493e-42
-8.48649e-72
4.60894e-65
9.18355e-41
-9.18355e-41
-4.48441e-71
7.34684e-40
3.67342e-40
-1.83671e-40
-1.88635e-68
-1.17549e-38
-4.70198e-38
7.34684e-40
-1.91151e-69
9.40395e-38
-5.87747e-39
-5.87747e-39
-6.11101e-75
1.17549e-38
1.10203e-39
-3.16957e-68
-4.4081e-39
3.58448e-68
-2.1716e-65
-1.17549e-38
-1.17549e-38
1.17549e-38
1.33684e-69
8.66409e-62
8.59377e-62
-1.46937e-39
-2.92585e-63
-2.69402e-61
-8.32767e-67
-3.52721e-64
-2.93874e-39
4.70198e-38
-4.70198e-38
1.02525e-63
-6.63969e-66
0
-1.14598e-67
-4.89622e-64
-1.17549e-38
1.17549e-38
-1.46937e-39
5.87747e-39
1.67251e-61
2.57735e-65
-1.10388e-67
7.00649e-46
-5.93748e-65
4.13468e-58
-9.62965e-35
-3.85186e-34
7.22224e-35
-4.81482e-35
4.34025e-57
-1.73063e-61
-3.85186e-34
-2.91745e-58
-1.32247e-57
-7.99222e-63
2.61747e-58
8.10142e-62
-2.40741e-35
3.54782e-62
-2.69567e-61
-6.01853e-36
-2.40741e-35
-1.44001e-61
4.94634e-65
-1.13207e-59
1.58311e-59
1.08394e-58
-5.04334e-60
4.70198e-38
-9.40395e-38
5.63462e-60
1.50463e-36
-1.50463e-36
7.52316e-37
5.87747e-39
-6.01853e-36
-6.01853e-36
7.52316e-37
-1.20371e-35
-5.15918e-61
9.40395e-38
-7.52316e-37
3.76158e-37
7.05297e-38
5.87747e-39
6.46675e-66
2.20988e-62
7.52316e-37
-5.25981e-62
-6.01853e-36
1.5845e-62
-4.70198e-38
2.35099e-38
-3.00927e-36
-1.12847e-36
1.50463e-36
-3.76158e-37
-3.00927e-36
1.12847e-36
3.92475e-69
6.82853e-64
-1.88079e-37
7.69117e-62
9.40395e-38
2.70495e-60
-1.11097e-59
2.40741e-35
4.2119e-59
-9.39758e-61
-1.33896e-58
2.98659e-61
2.97244e-62
-4.81482e-35
7.52316e-37
-9.3334e-59
9.62965e-35
-9.62965e-35
-1.20371e-35
-3.61112e-35
3.99662e-58
6.29412e-57
2.40741e-35
1.20371e-35
-5.08411e-58
3.00927e-36
2.40741e-35
-4.81482e-35
-7.73954e-60
-5.94979e-57
1.20371e-35
-3.92201e-60
6.64229e-64
6.01853e-36
3.00927e-36
-3.85186e-34
-3.00927e-36
1.09112e-57
-2.4702e-61
3.85186e-34
-3.00927e-36
7.62972e-65
1.66e-71
-3.94478e-63
-9.64828e-56
2.46519e-32
3.85186e-34
-1.55795e-54
4.14053e-55
-5.53619e-54
-7.70372e-34
-1.2326e-32
2.46519e-32
-1.2326e-32
-1.12256e-59
6.16298e-33
1.6011e-60
1.2326e-32
-7.70372e-34
3.04977e-61
-9.62965e-35
3.08149e-33
-3.85186e-34
3.00927e-36
1.54074e-33
4.05744e-56
-3.16558e-56
3.08149e-33
3.85186e-34
1.36917e-56
-2.34706e-58
2.80538e-61
-1.92593e-34
3.08149e-33
-1.9463e-56
-1.54074e-33
-7.70372e-34
-3.76158e-37
2.34586e-57
-1.54074e-33
-2.47108e-57
-1.50463e-36
4.49401e-59
-9.62965e-35
3.85186e-34
-1.92593e-34
6.0876e-58
1.51998e-57
1.54074e-33
1.54074e-33
6.16298e-33
7.70372e-34
4.81482e-35
-1.54074e-33
2.11853e-60
1.92593e-34
3.08149e-33
9.62965e-35
-6.16298e-33
1.33014e-61
-1.92593e-34
-1.02283e-57
-3.85186e-34
3.00927e-36
1.4875e-57
-3.08149e-33
-2.13978e-56
-2.63223e-56
6.16298e-33
-8.71708e-56
-7.70372e-34
3.62477e-56
-1.2326e-32
1.2326e-32
1.2326e-32
3.34882e-56
1.2326e-32
-1.54074e-33
5.98183e-59
-6.12502e-56
-2.46519e-32
4.90934e-57
-2.37027e-58
-1.2326e-32
4.93038e-32
2.0084e-53
-3.08149e-33
-3.08149e-33
4.80703e-55
-2.23306e-56
-3.08149e-33
-2.07815e-59
1.54074e-33
-1.83544e-54
2.46519e-32
4.93038e-32
9.86076e-32
1.54074e-33
1.2326e-32
4.93038e-32
-1.92593e-34
1.50463e-36
-3.46192e-65
6.16298e-33
3.15544e-30
3.87208e-53
3.9204e-53
-3.04455e-52
-1.55715e-51
-1.37594e-52
-7.88861e-31
3.9443e-31
-2.09932e-53
1.16442e-59
-7.25355e-57
-5.69202e-54
-2.60984e-54
-4.81482e-35
-2.59246e-58
7.88861e-31
4.64405e-53
7.05749e-53
-8.24477e-57
4.93038e-32
-1.97215e-31
9.86076e-32
5.34894e-56
-7.56087e-58
1.75414e-53
-1.06577e-56
-9.06435e-58
-3.91934e-57
1.97215e-31
-2.28613e-53
9.86076e-32
9.86076e-32
-2.12008e-58
-9.86076e-32
1.97215e-31
-9.86076e-32
-3.49426e-58
-1.97215e-31
-1.77941e-58
-2.6801e-56
-1.97215e-31
-1.97215e-31
3.93624e-57
-1.96289e-56
4.05188e-56
-3.29162e-57
7.35293e-63
1.54074e-33
2.70994e-58
1.97215e-31
-2.52777e-58
-6.78811e-57
-4.13543e-60
-9.86076e-32
1.04389e-55
4.93038e-32
-2.80535e-55
1.41333e-54
-1.08733e-55
-1.97215e-31
-3.9125e-56
1.97215e-31
-7.88861e-31
3.87888e-55
6.37793e-54
9.86076e-32
-1.18351e-54
1.30711e-53
-3.9443e-31
-5.08561e-54
-4.62223e-33
-5.04099e-57
-1.21227e-58
-3.85186e-34
-6.16298e-33
-7.88861e-31
2.10892e-53
-1.30745e-58
2.17896e-52
-6.75128e-52
-3.15544e-30
4.93038e-32
-4.93038e-32
-1.77369e-54
3.15544e-30
4.93038e-32
-2.01845e-59
-1.57772e-30
8.41786e-53
-2.31865e-54
1.57772e-30
8.10485e-53
3.15544e-30
1.57772e-30
8.29404e-53
7.88861e-31
2.90855e-58
-7.57295e-65
-1.2326e-31
4.79788e-53
2.05967e-53
-3.74952e-53
6.31089e-30
-4.91929e-50
-4.23272e-51
3.15544e-30
-6.31089e-30
-3.15544e-30
-8.98886e-58
-8.65232e-54
-5.97124e-51
3.14529e-55
-9.86076e-32
1.97215e-31
4.64486e-52
-1.57772e-30
9.86076e-32
3.85186e-34
-6.26291e-58
3.23979e-51
4.86726e-55
-4.04753e-57
-9.05116e-56
2.03245e-53
1.97215e-31
-1.5658e-56
3.15544e-30
-5.31699e-52
-2.67279e-56
-1.99205e-54
-3.39447e-58
-9.62965e-35
-7.88861e-31
1.57772e-30
1.36324e-53
-5.77668e-56
3.15544e-30
-1.97215e-31
6.54332e-53
3.15544e-30
-4.77434e-57
-1.06786e-53
-6.31089e-30
-1.57772e-30
6.478e-55
-1.31504e-58
-2.46519e-32
3.9443e-31
5.78291e-57
-7.88861e-31
-6.16298e-33
3.85186e-34
1.84191e-54
-2.10307e-53
-3.15544e-30
-2.06124e-54
1.57772e-30
1.65261e-53
-1.99928e-55
-5.52204e-55
-9.4804e-53
-3.15544e-30
1.2326e-32
-6.66015e-54
8.15836e-52
1.57944e-51
1.2326e-32
1.37068e-51
1.77578e-52
1.57772e-30
-4.345e-55
3.00927e-36
9.62965e-35
-1.26218e-29
2.46519e-32
8.92211e-52
-7.88861e-31
-1.26218e-29
-2.29621e-50
7.10308e-51
7.70372e-34
-3.85186e-34
4.49077e-57
1.52333e-51
3.64843e-50
-6.16298e-33
-2.05458e-51
4.93038e-32
-2.52435e-29
-1.2326e-32
1.43065e-54
-1.78097e-51
-6.31089e-30
-2.52435e-29
7.95093e-52
-5.21047e-57
-9.86076e-32
-1.69155e-51
-4.93038e-32
-3.68424e-53
1.26218e-29
2.52435e-29
-3.65822e-53
-3.37031e-51
-8.41228e-53
-4.93038e-32
-1.26831e-53
-9.86076e-32
1.85895e-50
-6.31089e-30
4.88164e-58
1.97215e-31
2.25378e-55
-1.48212e-50
6.31089e-30
-6.31089e-30
-1.42235e-54
3.25396e-55
-1.57772e-30
-1.97215e-31
1.97215e-31
6.16298e-33
-3.15544e-30
3.15544e-30
-1.82274e-51
-3.15544e-30
1.09276e-52
1.54613e-52
-6.31089e-30
5.00464e-56
-5.77779e-34
-8.86246e-56
1.2326e-32
2.46519e-32
6.31089e-30
6.31089e-30
1.26218e-29
1.23659e-54
-1.97215e-31
-3.9443e-31
-9.07404e-56
1.25954e-53
3.15544e-30
-1.27554e-53
3.9443e-31
-2.46519e-32
1.03202e-55
4.93038e-32
-7.88861e-31
-4.52382e-59
9.62965e-35
2.19641e-52
3.15544e-30
-6.31089e-30
-4.70874e-55
-6.31089e-30
1.14324e-52
6.31089e-30
4.66356e-52
2.68031e-53
4.82125e-55
3.9443e-31
-7.88861e-31
-1.26218e-29
1.26218e-29
-7.88861e-31
-2.52435e-29
-3.46861e-51
1.93053e-56
1.54074e-33
-2.0125e-57
5.77779e-34
1.42162e-49
-1.57772e-30
1.26218e-29
2.73058e-50
-1.42681e-51
1.00974e-28
5.36622e-52
-7.88861e-31
-3.29148e-51
2.90606e-51
-1.8616e-52
-5.04871e-29
-5.04871e-29
-3.98282e-52
1.11512e-51
5.04871e-29
-1.80556e-35
-3.9443e-31
2.52435e-29
-1.77963e-49
1.11967e-49
-1.56904e-51
-2.10718e-58
-6.31089e-30
8.882e-51
1.26218e-29
-2.52435e-29
-9.86076e-32
-2.52435e-29
2.95823e-31
2.52435e-29
-3.19785e-49
1.97215e-31
-9.86076e-32
-1.26218e-29
6.31089e-30
-2.46519e-32
-1.44493e-56
-3.15544e-30
-3.89091e-54
1.45216e-49
-1.26607e-50
1.34353e-50
3.9443e-31
-3.46757e-57
-6.83932e-54
1.35345e-53
3.15544e-30
1.36956e-53
2.24677e-51
-1.57772e-30
1.32519e-51
6.31089e-30
-1.97215e-31
-3.15544e-30
-2.12071e-51
1.56084e-54
1.14253e-55
3.15544e-30
-1.26218e-29
-1.10921e-51
-1.33901e-51
4.93038e-32
1.00974e-28
-1.26218e-29
3.9443e-31
1.48654e-55
3.08149e-33
-7.23649e-58
-9.86076e-32
-7.88861e-31
-1.97215e-31
3.85186e-34
-1.09551e-54
-1.92593e-34
2.26718e-55
1.53913e-57
-3.72997e-56
-2.41292e-53
1.62809e-55
6.31089e-30
2.46519e-32
3.15544e-30
-3.27233e-52
-1.97215e-31
-2.24943e-52
1.66841e-54
-1.20371e-35
-1.97215e-31
1.26218e-29
-3.36616e-51
-6.31089e-30
3.9443e-31
-6.31089e-30
-8.76188e-51
-3.91597e-52
-1.57772e-30
3.9443e-31
-9.86076e-32
1.83693e-50
3.04809e-51
-1.57772e-30
-3.77019e-50
-3.15544e-30
-2.44565e-49
-8.88063e-54
-7.88861e-31
6.76427e-49
5.04871e-29
3.61383e-53
-2.52435e-29
2.62376e-48
-1.51461e-28
1.10064e-48
-3.9443e-31
-7.70372e-34
2.17357e-57
-2.31617e-49
1.50006e-52
-7.39672e-49
1.00974e-28
-3.85186e-34
-4.28249e-54
-2.52435e-29
-4.07797e-51
2.52435e-29
-5.96365e-49
6.31089e-30
-9.86076e-32
6.31089e-30
2.52579e-49
-6.31089e-30
-1.97215e-31
2.2973e-51
-2.00689e-49
1.89357e-49
6.00458e-55
-1.48181e-50
3.08149e-33
-4.98753e-49
-3.01153e-53
-6.41334e-54
6.16298e-33
-1.56385e-61
7.70372e-34
1.57772e-30
-1.57772e-30
1.8148e-50
3.15544e-30
1.41959e-50
6.16298e-33
-1.58749e-50
3.15544e-30
1.57772e-30
9.86076e-32
3.15544e-30
-2.46519e-32
9.86076e-32
-8.58865e-51
1.60305e-51
3.76497e-50
9.86076e-32
-1.97215e-31
4.93038e-32
1.2476e-51
3.61149e-55
-1.2326e-32
8.18998e-53
5.56137e-56
-1.18329e-30
-1.97215e-31
3.96827e-58
7.58018e-55
1.56456e-56
6.06574e-53
1.53183e-57
3.54423e-53
2.46519e-32
-4.93038e-32
3.15544e-30
1.57772e-30
-3.05639e-54
-1.57772e-30
-5.12233e-52
9.86076e-32
5.68575e-58
1.71857e-53
-3.15544e-30
-1.63935e-51
-6.31089e-30
1.3372e-50
1.12097e-52
-2.42188e-50
7.78241e-51
5.06286e-50
-7.45559e-54
-7.97963e-54
5.68433e-50
7.88861e-31
-2.04442e-49
3.37344e-55
5.19678e-49
2.52435e-29
2.52435e-29
2.10095e-54
-2.47771e-51
-1.97215e-31
-7.39917e-51
-7.88861e-31
-1.28465e-50
-7.88861e-31
5.04871e-29
-9.86076e-32
-1.49034e-48
-5.47887e-54
-3.9443e-31
-7.88861e-31
-2.35818e-51
6.14545e-49
-2.84439e-53
3.82835e-65
3.15544e-30
9.86076e-32
6.20258e-50
-3.68889e-50
-6.31089e-30
4.84834e-49
-6.31089e-30
4.93038e-32
-3.2308e-52
-1.88064e-49
-2.41756e-49
3.15544e-30
-3.15544e-30
-3.9443e-31
-3.82095e-53
3.15544e-30
-8.20736e-53
-3.15544e-30
-9.86076e-32
3.74374e-54
-6.01853e-36
-7.70372e-34
-1.2326e-32
-1.26625e-50
9.86076e-32
1.57772e-30
1.57772e-30
-1.98215e-50
-1.47729e-50
2.72574e-55
1.57772e-30
3.15544e-30
3.15544e-30
4.59575e-51
1.26218e-29
-9.4202e-51
7.2787e-54
7.88861e-31
1.97215e-31
1.26426e-50
8.45757e-51
-1.57772e-30
-1.57772e-30
5.61046e-52
-7.88861e-31
7.88861e-31
5.9177e-53
1.97215e-31
6.16298e-33
6.16298e-33
6.60146e-55
1.97215e-31
-6.16298e-33
-7.69588e-56
1.57772e-30
4.64944e-52
-2.46519e-32
3.29736e-55
-7.88861e-31
1.13435e-54
4.24618e-55
1.2326e-32
9.50581e-54
1.97215e-31
-2.58325e-50
-6.31089e-30
-4.40242e-54
-2.44649e-50
6.31089e-30
3.06499e-50
6.31089e-30
-1.26218e-29
-6.31089e-30
-8.20613e-54
-4.62223e-33
2.13942e-50
-2.72181e-55
-2.52435e-29
3.85186e-34
-1.26218e-29
-4.19055e-52
2.23409e-51
3.08149e-33
1.26218e-29
2.52435e-29
2.52435e-29
3.9443e-31
2.52435e-29
-9.70575e-49
1.95497e-51
-1.21662e-47
7.28388e-49
1.42545e-54
-6.16298e-33
4.03897e-28
2.01948e-28
-1.97215e-31
-3.74748e-59
1.92593e-34
-3.9443e-31
1.57772e-30
6.31089e-30
-9.86076e-32
-4.93038e-32
6.31089e-30
3.15544e-30
-7.70372e-34
-6.1223e-56
-2.28146e-49
1.47994e-49
-1.79086e-51
1.79454e-49
-1.59405e-49
-1.63336e-52
-1.0894e-48
1.57772e-30
-1.57772e-30
-1.57772e-30
9.86076e-32
-1.18532e-61
-1.25584e-53
1.0042e-49
3.15544e-30
-1.1209e-49
-1.05221e-49
-1.2326e-32
1.46812e-50
1.5454e-50
5.25007e-59
-1.54074e-33
-1.54074e-33
6.31089e-30
-3.58015e-49
6.31593e-50
-2.09433e-50
7.11008e-54
-1.97215e-31
-6.46315e-50
3.15544e-30
-3.90025e-50
5.86313e-52
5.01878e-52
1.18329e-30
2.68456e-55
4.43671e-53
-4.44993e-53
2.17083e-58
-5.59802e-54
1.53053e-59
-5.60491e-55
2.48502e-54
-9.19931e-57
3.9443e-31
7.88861e-31
3.9443e-31
2.46519e-32
-4.81482e-35
2.21657e-51
-2.73334e-51
1.2326e-31
2.46519e-32
-3.15544e-30
-3.58295e-54
2.34401e-50
-2.03077e-49
-8.29921e-53
9.86076e-32
6.31089e-30
-2.83786e-50
-7.05406e-52
9.27601e-51
3.48197e-49
-6.12144e-53
5.01491e-54
-2.84053e-49
-1.97215e-31
-1.84077e-49
1.17902e-52
4.93038e-32
8.70915e-52
-6.31089e-30
3.9443e-31
4.89415e-49
9.86076e-32
-6.30154e-52
-1.26218e-29
-7.65313e-48
8.21925e-54
3.85186e-34
-1.02936e-48
1.9169e-48
6.435e-54
-1.43699e-53
5.26434e-48
2.49997e-48
1.97215e-31
-2.19276e-53
-3.08149e-33
-1.97215e-31
8.22313e-54
-3.15544e-30
4.6773e-49
3.15544e-30
-2.46519e-32
3.41785e-51
-9.86076e-32
-4.85032e-56
1.84682e-49
1.59696e-48
-1.43788e-48
1.57772e-30
-9.86076e-32
-1.12968e-48
1.10206e-49
-1.14019e-49
1.22125e-49
7.88861e-31
-4.81482e-34
4.81482e-35
9.63009e-50
-1.57772e-30
-4.93038e-32
-3.15544e-30
-6.16298e-33
-1.57772e-30
-2.2113e-54
1.2173e-49
-9.86076e-32
3.15544e-30
-2.87564e-50
-3.22263e-49
5.86429e-53
-1.2326e-32
1.26218e-29
1.20607e-54
4.36648e-54
4.47408e-50
-2.63257e-55
1.2326e-32
1.57772e-30
-3.39001e-52
5.96184e-57
-1.54074e-33
-1.54074e-33
-6.16298e-33
-4.11501e-53
4.40463e-54
-1.20371e-35
-1.51165e-58
1.97215e-31
9.86076e-32
-6.16298e-33
1.97215e-31
-6.16298e-33
-7.88861e-31
-3.08149e-33
-1.81064e-50
3.9443e-31
-2.7564e-58
-4.93038e-32
9.86076e-32
-6.69566e-57
-3.08149e-33
1.2326e-32
-3.15544e-30
-9.86076e-32
-2.0928e-50
-1.25287e-53
-2.29464e-49
2.2386e-52
3.15544e-30
-4.26673e-56
3.24221e-56
-2.48236e-49
-1.46864e-56
-1.97215e-31
-3.15544e-30
1.41759e-62
-6.31089e-30
-1.2326e-32
1.26218e-29
2.68167e-52
5.5867e-48
-6.63601e-48
-2.52435e-29
1.26218e-29
2.52435e-29
-4.89341e-51
5.04871e-29
-3.63915e-48
-1.97215e-31
7.06167e-51
3.9443e-31
1.67811e-48
1.49927e-48
6.31089e-30
-2.685e-57
-7.70372e-34
-7.70372e-34
-3.15544e-30
9.86076e-32
3.15544e-30
-1.98886e-55
2.14484e-48
1.57772e-30
-3.86277e-56
2.46519e-32
-1.3153e-48
-2.46519e-32
1.2326e-32
-5.85244e-57
9.71967e-49
-2.75983e-53
7.17057e-48
-1.57772e-30
-4.93038e-32
-2.54084e-53
-4.81482e-35
-9.25151e-50
-7.88861e-31
7.88861e-31
-8.25018e-49
-6.05615e-35
1.12602e-49
7.50958e-55
-1.41226e-49
-1.64138e-49
-2.44688e-49
1.43194e-53
-1.57772e-30
3.15544e-30
1.42297e-49
9.86076e-32
3.15544e-30
-3.95252e-50
3.92539e-51
3.00927e-36
-7.88861e-31
-1.2326e-32
-4.93038e-32
-2.44797e-51
1.97215e-31
-2.7523e-56
1.97215e-31
-9.86076e-32
-3.59447e-54
4.21297e-35
1.1832e-59
-9.86076e-32
9.68132e-57
-2.40429e-52
-1.99409e-52
3.99198e-56
-3.9443e-31
1.82038e-51
1.91334e-51
6.16298e-33
-2.27471e-54
-7.88861e-31
1.41957e-50
-1.30562e-53
-7.88861e-31
1.38846e-53
-5.78368e-49
7.39557e-32
-7.56952e-53
-1.84316e-49
1.57772e-30
-2.01417e-49
-4.69211e-52
2.73869e-52
-3.85186e-34
-1.57772e-30
7.04264e-53
-5.44759e-56
3.15544e-30
1.54074e-33
2.72656e-48
-6.31089e-30
1.26218e-29
4.73625e-48
-4.67113e-48
1.59612e-50
-6.22826e-48
4.93038e-32
-2.52435e-29
-1.66533e-47
1.97215e-31
3.48515e-51
-7.39557e-32
-2.52435e-29
-1.26218e-29
-1.26218e-29
6.31089e-30
6.31089e-30
-2.40741e-34
-4.93038e-32
1.05694e-56
-3.88084e-49
-2.88507e-48
3.15544e-30
1.32892e-54
-1.57717e-47
1.62586e-48
4.08343e-56
-3.85186e-34
7.88861e-31
-1.2326e-32
1.92593e-34
2.46519e-32
-9.14411e-49
-2.54363e-53
-7.88861e-31
1.2326e-32
-1.57772e-30
-1.92593e-34
-2.18239e-53
4.93038e-32
-3.9443e-31
-3.9443e-31
3.9443e-31
-3.45317e-59
4.43919e-53
1.65312e-49
4.93038e-32
1.80432e-49
-2.46979e-49
4.93038e-32
-3.88316e-53
-6.39566e-54
-9.86076e-32
-4.60245e-50
1.57772e-30
-2.69695e-54
-2.20692e-50
-3.85186e-34
-1.37008e-56
4.96939e-55
5.07345e-56
1.97215e-31
1.54074e-33
-1.92848e-52
-2.1565e-52
8.57355e-57
3.59023e-54
-7.74643e-58
-1.92593e-34
-4.93038e-32
7.15423e-58
9.86076e-32
-1.97215e-31
4.81482e-35
-6.16298e-33
-1.67795e-51
-1.37726e-50
-4.48824e-54
7.88861e-31
1.50956e-50
3.64865e-54
-3.9443e-31
-1.53194e-50
-7.88861e-31
1.36145e-49
-4.93038e-32
-2.46519e-32
1.45605e-48
-1.2326e-32
1.57772e-30
4.93038e-32
-2.80076e-49
-4.93038e-32
-2.20688e-48
3.806e-52
-9.86076e-32
-5.78514e-52
-7.50455e-53
3.15544e-30
-6.31089e-30
4.19276e-48
-5.12821e-48
-4.76397e-51
5.37723e-47
9.49985e-51
1.26218e-29
2.79343e-51
-2.52435e-29
-1.00974e-28
-2.46519e-32
2.73829e-47
-1.41976e-47
6.31089e-30
5.5145e-52
2.07828e-52
-8.01121e-50
-1.92593e-34
-9.86076e-32
1.2326e-32
3.80752e-49
7.88861e-31
-5.04835e-51
1.81043e-54
3.15544e-30
-3.04802e-51
1.73855e-52
2.05751e-55
-1.15242e-48
1.06445e-48
1.2326e-32
2.46519e-32
8.33377e-49
-2.38665e-53
-1.84889e-32
-9.62965e-35
-6.27275e-49
-2.46519e-32
-7.46402e-49
2.46519e-32
-2.46519e-32
-3.08149e-33
3.08149e-33
1.92483e-57
1.57772e-30
7.88861e-31
-4.81482e-35
-2.46519e-32
2.89446e-49
-7.70372e-34
-1.92593e-34
1.63142e-54
-1.36556e-48
-7.88861e-31
-3.08149e-33
-3.9443e-31
2.29381e-50
-1.2326e-32
1.54597e-50
1.42565e-50
-4.44371e-56
7.45849e-58
3.08149e-33
9.86076e-32
4.93038e-32
6.25034e-58
2.46519e-32
7.70372e-34
3.38415e-54
1.9658e-53
-8.59146e-57
-9.86076e-32
9.86076e-32
-9.62965e-35
3.08149e-33
3.97117e-55
-7.88861e-31
1.3586e-50
-1.10797e-49
-3.08149e-33
-3.06279e-53
7.07916e-53
-1.63224e-53
1.24792e-49
4.09315e-53
-8.32891e-53
-2.46519e-32
-1.26065e-49
-4.60438e-54
-6.16298e-33
1.64953e-48
-7.88861e-31
1.90582e-48
1.78355e-48
-2.22851e-48
-4.52513e-56
-1.461e-51
-4.21769e-55
-3.42631e-48
-3.67021e-48
3.15544e-30
3.7442e-51
-7.70372e-34
-7.39557e-32
-1.05789e-53
-6.31089e-30
1.26218e-29
-1.26218e-29
3.76571e-46
3.08149e-33
-1.22949e-50
-1.20977e-47
2.46519e-32
4.93038e-32
-1.2326e-32
-4.25143e-54
2.40741e-35
9.25041e-53
-3.79515e-49
-2.86687e-49
-7.70372e-33
1.57772e-30
-3.08149e-33
-1.57772e-30
-7.88861e-31
-7.88861e-31
9.62965e-35
7.88861e-31
-1.87132e-52
7.88861e-31
-3.9443e-31
-1.7062e-52
3.38783e-52
6.16298e-33
1.26582e-56
3.9443e-31
4.81482e-35
7.28358e-49
2.62404e-53
-3.9443e-31
9.62965e-35
-6.74958e-54
2.46519e-32
7.17933e-48
1.2326e-32
-5.07805e-54
2.43889e-49
4.93038e-32
-1.57772e-30
-1.01642e-56
-1.57772e-30
2.68562e-49
2.24879e-55
-6.47331e-55
-5.52146e-55
5.65994e-54
3.43035e-54
1.2326e-32
-3.9443e-31
-3.13471e-56
1.53568e-51
-1.46652e-51
1.54716e-52
-4.93038e-32
1.54074e-33
1.93695e-53
4.60211e-57
1.2326e-32
6.01372e-57
-4.93038e-32
-1.60323e-52
1.44961e-51
-4.81482e-35
-4.81482e-35
9.62965e-35
-9.60309e-50
1.97215e-31
3.9443e-31
1.92249e-53
3.9443e-31
1.97215e-31
2.9508e-53
3.9443e-31
-4.09808e-54
3.9443e-31
1.52853e-49
-1.50906e-49
-1.07651e-56
7.86504e-53
-7.88861e-31
6.16298e-33
-7.88861e-31
2.54086e-51
1.57772e-30
-7.21987e-53
-1.57772e-30
-3.85186e-34
-7.39557e-32
-1.12953e-50
-3.3927e-51
4.93038e-32
-9.86076e-32
-6.61692e-48
-3.21363e-53
-1.27103e-47
1.54242e-46
5.04871e-29
4.93038e-32
6.95696e-52
-1.33033e-47
9.27935e-48
7.9805e-48
6.31089e-30
1.57772e-30
-7.88861e-31
-1.92593e-34
9.48381e-53
-7.88861e-31
-7.88861e-31
2.17373e-48
-1.93924e-48
-3.85186e-34
2.46519e-32
1.036e-47
-3.9443e-31
1.63832e-55
-3.9443e-31
-2.40741e-35
-3.9443e-31
8.07456e-49
-1.2326e-32
-7.88861e-31
-7.88298e-49
1.95997e-53
6.57363e-49
2.46519e-32
2.02185e-53
6.26636e-49
3.9443e-31
-1.2326e-32
-3.9443e-31
4.81482e-35
1.84889e-32
-4.29381e-54
-3.85186e-34
-6.25406e-48
-2.71812e-49
3.15544e-30
-7.35314e-55
2.84881e-49
9.87482e-55
1.54074e-33
1.54074e-33
-4.55511e-55
-1.27791e-50
-6.16298e-33
-1.97215e-31
1.54074e-33
-1.12847e-35
-1.30218e-51
-9.86076e-32
3.85186e-34
-9.14817e-34
-1.96344e-61
-2.04899e-58
-1.07174e-61
-1.2326e-32
7.70372e-34
-2.46519e-32
-3.85186e-34
-4.93038e-32
1.54074e-33
-1.54074e-33
-1.06674e-54
-9.86076e-32
9.86076e-32
-9.92962e-50
-1.97215e-31
-1.97215e-31
-2.06764e-54
1.97215e-31
-1.54074e-32
-1.2326e-32
-1.17867e-49
1.54635e-52
1.97215e-31
-1.1304e-52
1.38607e-48
-1.2326e-32
-7.70372e-34
-1.5377e-48
1.92593e-34
4.23246e-52
-3.85186e-34
4.93038e-32
3.85186e-34
8.16851e-53
3.47971e-48
1.57772e-30
-4.93038e-32
4.69106e-47
1.36493e-51
-9.05479e-51
3.15544e-30
-6.31089e-30
1.26218e-29
-6.31089e-30
6.31089e-30
3.15544e-30
6.31089e-30
1.57772e-30
-3.15544e-30
-5.80521e-49
1.11352e-52
-2.2814e-60
2.46519e-32
3.9443e-31
-3.9443e-31
-7.88861e-31
1.66053e-48
4.75121e-56
-7.70372e-34
3.9443e-31
-8.87917e-48
3.85186e-34
-6.16298e-33
1.92593e-34
3.9443e-31
-6.16298e-33
-3.9443e-31
-4.56665e-48
5.34042e-49
1.54275e-52
-3.9443e-31
6.48901e-49
1.97215e-31
-6.76056e-49
1.2326e-32
1.2326e-32
-3.9443e-31
-3.85186e-34
6.06631e-53
-2.82719e-54
-1.2326e-32
1.91613e-48
1.57772e-30
3.029e-48
7.88861e-31
6.61475e-55
9.085e-55
3.9443e-31
-1.14469e-49
-2.95363e-55
-1.97215e-31
3.08149e-33
-3.08149e-33
9.86076e-32
-3.08149e-33
8.92545e-51
4.93038e-32
-6.01853e-35
-4.93038e-32
4.78926e-60
2.9761e-63
-2.33976e-61
1.2326e-32
2.46519e-32
-9.62965e-34
4.15469e-57
-4.81482e-34
-7.70372e-34
2.40741e-35
-4.81482e-35
-1.54074e-33
-1.4926e-33
1.97215e-31
9.332e-50
-9.86076e-32
-7.20668e-54
1.02998e-49
-8.75006e-49
-1.92593e-34
-3.08149e-33
-1.2825e-49
-1.2326e-32
1.15033e-48
3.54307e-51
-4.81482e-35
-1.2326e-32
4.93038e-32
-1.2326e-32
1.41729e-60
1.92593e-34
-2.21971e-48
-2.13637e-56
6.72306e-56
-8.66116e-52
1.7805e-51
-3.75046e-47
-2.46519e-32
-7.71174e-55
7.6508e-47
4.93038e-32
-1.26218e-29
1.08969e-51
2.46519e-32
-3.15544e-30
-6.31089e-30
1.57772e-30
-6.00783e-48
1.57772e-30
4.31647e-48
3.37331e-52
1.20371e-35
-4.93038e-32
3.47149e-55
-4.60505e-52
-7.88861e-31
-5.98658e-51
8.16469e-56
1.19632e-51
-8.46842e-48
8.23888e-48
1.92593e-34
9.62965e-35
0
-1.2326e-32
6.16298e-33
-2.46519e-32
-3.9443e-31
3.9443e-31
5.00444e-48
3.9443e-31
-1.59371e-47
6.33194e-49
2.32429e-52
-1.86077e-53
2.07195e-53
7.43874e-49
9.62965e-35
3.9443e-31
-1.13034e-48
1.41751e-48
-3.49658e-54
-1.65061e-53
1.57772e-30
-3.9443e-31
1.54074e-33
-1.97215e-31
-1.97215e-31
1.97215e-31
-6.16298e-33
-7.79492e-50
-7.70372e-34
-1.0799e-50
-8.4318e-51
-7.70372e-34
-7.43149e-51
-3.85186e-34
-7.70372e-34
2.46519e-32
-7.89932e-36
4.42486e-68
2.89745e-60
1.64808e-53
1.2326e-32
-2.40741e-35
-2.20515e-56
2.46519e-32
-2.99808e-56
-7.70372e-34
-7.70372e-34
-4.31615e-55
-9.43149e-51
-7.70372e-34
-7.67347e-50
-9.86076e-32
9.86076e-32
1.3466e-53
-3.33533e-52
-1.2326e-32
3.08149e-33
-3.81393e-53
1.97215e-31
1.2326e-32
7.88861e-31
-2.65852e-53
3.8221e-53
1.49166e-48
3.48025e-52
2.46519e-32
3.92444e-53
-7.88861e-31
-1.05842e-54
1.2326e-32
2.46519e-32
-4.50302e-51
3.32878e-47
-4.36823e-47
-5.77779e-34
-6.31089e-30
4.93038e-32
6.31089e-30
1.81906e-46
-6.31089e-30
-6.16298e-33
-3.15544e-30
2.5883e-52
4.7263e-48
-6.16298e-33
-3.75055e-51
3.52896e-48
3.85186e-34
7.13839e-53
-2.69946e-49
-6.16298e-33
-1.97215e-31
-3.9443e-31
1.2326e-32
9.44342e-48
3.9443e-31
3.9443e-31
3.75895e-55
3.08149e-33
-1.50463e-36
-4.48022e-52
4.96213e-48
3.9443e-31
3.9443e-31
-3.74089e-47
-1.36512e-51
6.16298e-33
-7.88861e-31
-3.87889e-48
3.9443e-31
-6.16298e-33
-1.52354e-52
-1.97215e-31
1.15983e-57
-1.2326e-32
3.9443e-31
7.88861e-31
-1.65167e-54
-7.88861e-31
1.88617e-48
-1.62363e-48
-3.9443e-31
-3.9443e-31
2.60193e-54
1.97215e-31
-9.62965e-35
-7.36023e-50
6.81676e-50
8.77258e-51
2.31112e-33
1.80556e-35
-4.93038e-32
-1.54074e-33
-8.51731e-52
1.20371e-34
7.70372e-34
-6.76717e-63
6.01853e-36
1.92593e-34
2.13528e-57
7.82409e-35
-1.2326e-32
1.2326e-32
-7.70372e-34
2.46519e-32
-4.93038e-32
8.62266e-51
1.54074e-33
2.20638e-57
7.85485e-50
1.92593e-34
4.93038e-32
3.08149e-33
-1.97215e-31
9.86076e-32
4.81482e-35
5.56213e-53
8.63328e-49
-9.14105e-49
1.2326e-32
-3.47715e-53
7.99564e-59
-8.24178e-53
-1.67032e-48
3.9443e-31
9.62965e-35
-2.46519e-32
4.93038e-32
1.93118e-47
-2.04529e-57
1.57772e-30
3.47274e-47
-3.69779e-32
-4.93038e-32
-3.15544e-30
-1.66115e-52
-1.48333e-46
1.26218e-29
-1.02086e-46
3.08149e-33
-2.46519e-32
-3.08149e-33
3.98781e-47
2.36963e-54
7.88861e-31
-3.7188e-49
-1.92593e-34
1.92593e-34
1.94795e-48
1.73187e-48
-1.5104e-48
-1.2326e-32
3.9443e-31
-7.87561e-48
7.05227e-48
6.97207e-48
-1.54074e-33
-1.88552e-57
3.21407e-52
-5.24342e-48
3.9443e-31
6.16298e-33
3.08149e-33
3.9443e-31
-1.97215e-31
-4.43515e-48
-3.38009e-48
-3.08149e-33
-3.3562e-47
-6.16298e-33
1.92593e-34
-6.16298e-33
-9.62965e-35
-7.72835e-49
-3.00014e-53
6.16298e-33
-3.9443e-31
1.14882e-56
-3.85186e-34
1.39704e-48
-8.78882e-48
-1.09217e-49
-9.39674e-50
9.86076e-32
-1.236e-54
4.93038e-32
-9.86076e-32
-1.54074e-33
-2.46519e-32
1.54074e-33
-2.46519e-32
-2.46519e-32
-1.62418e-56
-8.67212e-57
-3.48509e-58
9.62965e-35
3.85186e-34
-3.08149e-33
2.77078e-58
-8.01665e-52
8.28219e-52
7.39082e-57
7.51202e-51
-7.84965e-51
-1.54074e-33
2.46519e-32
4.93038e-32
3.18448e-54
-4.93038e-32
7.06598e-50
-6.49703e-50
-8.87882e-50
-9.34971e-50
-6.81859e-49
1.00644e-56
-6.99726e-49
-6.16298e-33
3.08149e-33
8.96367e-49
4.62223e-33
2.61488e-53
1.01523e-47
1.41349e-48
-3.9443e-31
6.16298e-33
7.23217e-52
9.5656e-55
-7.88861e-31
6.58635e-52
-4.93038e-32
-3.16242e-47
7.70372e-34
5.23278e-47
3.91712e-50
-4.72118e-51
1.28019e-50
1.25135e-46
-9.12825e-47
6.16298e-33
2.40741e-35
-2.50717e-54
-2.29891e-50
1.2326e-32
3.15542e-48
6.16298e-33
-3.76158e-37
5.93345e-53
-1.71921e-48
-1.97215e-31
-1.49186e-48
-1.2326e-32
-2.46519e-32
1.05277e-51
-5.33418e-54
-4.64752e-47
-6.16298e-33
3.08149e-33
4.77001e-48
-1.97215e-31
3.87154e-48
1.18052e-53
-3.83099e-52
-2.95823e-31
-3.76244e-48
3.42458e-48
6.16298e-33
9.62965e-35
-3.9443e-31
1.13069e-52
-4.47693e-52
-6.16298e-33
-2.03814e-53
8.20967e-49
1.02696e-48
-3.47744e-53
-7.88861e-31
3.9443e-31
1.2326e-32
-3.08149e-33
9.31386e-49
-1.15556e-33
-4.93038e-32
7.70372e-34
-6.58865e-50
3.05778e-56
4.80463e-49
-4.93038e-32
-4.93038e-32
1.2326e-32
-8.81109e-56
7.39557e-32
-6.01853e-36
6.94291e-52
2.61627e-57
1.92593e-34
2.69315e-57
-3.57812e-60
-3.10331e-36
-1.2326e-32
-1.63821e-56
-5.67177e-51
-6.54385e-51
-4.39474e-55
6.16166e-51
-1.54074e-33
2.46519e-32
-6.44678e-50
9.86076e-32
-6.47025e-50
6.79309e-50
4.93038e-32
7.70372e-34
-3.08149e-33
-1.52935e-52
-9.86076e-32
-4.81482e-35
3.08149e-33
8.01479e-53
-1.05058e-48
9.62965e-35
-9.33291e-48
-8.39571e-53
1.08034e-47
-1.36374e-47
-1.54096e-47
-6.15905e-52
-1.2326e-32
4.21195e-54
-1.93385e-46
-1.2326e-32
1.01459e-51
7.88861e-31
-6.10506e-47
-4.73317e-30
7.70372e-34
-1.50388e-52
-1.57772e-30
-5.99615e-47
-1.02549e-54
9.5965e-55
-7.88861e-31
2.83746e-47
-1.74832e-51
3.40104e-49
9.62965e-35
-5.64204e-54
1.81197e-49
1.84682e-52
9.79426e-48
8.56352e-48
-7.50717e-48
-1.97227e-54
6.0543e-48
2.46519e-32
5.10473e-48
7.70372e-34
3.08149e-33
-1.69941e-54
-9.86076e-32
1.35049e-53
1.92593e-34
2.0997e-52
2.75709e-48
1.54074e-33
-3.08149e-33
-4.62223e-33
-3.30478e-52
1.12188e-52
-6.16298e-33
-1.57761e-53
6.16298e-33
5.49145e-48
-8.23454e-49
7.65267e-54
-1.97215e-31
1.26764e-48
-1.19769e-48
3.23336e-57
1.35002e-54
-2.306e-59
1.54074e-33
6.57948e-50
5.88626e-50
2.46519e-32
-5.27192e-50
4.26875e-50
2.46519e-32
5.43442e-51
-2.10649e-35
1.2326e-32
7.14701e-36
-7.20127e-52
2.23978e-57
-7.65017e-53
4.97063e-61
-9.63862e-54
9.62965e-35
1.44445e-34
6.08556e-52
6.16298e-33
-2.87271e-55
1.4707e-55
1.2326e-32
-4.49266e-50
-2.04876e-56
7.70372e-34
-5.46325e-50
3.85186e-34
4.13121e-54
1.54074e-33
1.54074e-33
-7.70372e-34
-3.9929e-53
4.93038e-32
-5.17382e-53
-3.08149e-33
3.08149e-33
9.86076e-32
9.62965e-35
3.08149e-33
2.32951e-55
1.97215e-31
-1.97215e-31
-1.20496e-47
-1.15679e-47
1.2326e-32
-2.82321e-55
2.18282e-47
2.6288e-47
7.88861e-31
-1.54074e-33
5.12805e-47
-1.57772e-30
2.80919e-51
-3.4166e-51
-7.00414e-47
1.57772e-30
1.04738e-51
6.16298e-33
1.11755e-50
3.9443e-31
-2.77137e-48
-2.95171e-49
-9.62965e-35
3.08149e-33
1.54074e-33
5.77779e-34
1.97215e-31
-7.63837e-48
-9.86076e-32
1.96491e-54
-9.86076e-32
3.9443e-31
-1.97215e-31
-1.98458e-51
-1.56898e-52
3.37478e-48
9.86076e-32
7.26866e-52
2.44136e-53
-4.93038e-32
3.08149e-33
-6.78613e-52
9.86076e-32
3.08184e-48
-1.97215e-31
-9.46849e-53
1.54074e-33
-6.16298e-33
-3.08149e-33
9.86076e-32
-3.08149e-33
-1.97215e-31
5.77779e-34
1.92593e-34
1.00464e-48
4.81482e-35
-2.23358e-53
-1.54074e-33
-5.35347e-49
-5.34216e-50
2.00079e-55
2.46519e-32
4.55464e-50
-4.48323e-50
-1.2326e-32
-1.92593e-34
1.92593e-34
1.95269e-56
-1.92593e-34
3.5246e-57
9.62965e-35
6.40587e-53
-2.40741e-35
7.73451e-54
-3.08149e-33
-1.63286e-56
5.78511e-52
8.80099e-56
1.36083e-55
-8.01451e-56
3.24464e-49
-1.36261e-53
-4.25217e-50
-1.2326e-32
5.08736e-50
-1.20371e-35
1.33038e-54
-2.46519e-32
-2.84348e-56
2.40741e-35
-2.46519e-32
-5.93148e-53
5.23579e-49
5.32254e-48
4.93038e-32
5.756e-48
-1.957e-52
2.16569e-52
3.08149e-33
-2.91058e-54
-5.63134e-52
-9.86076e-32
1.97215e-31
-1.97215e-31
4.81482e-35
-3.08149e-33
3.08149e-33
7.88861e-31
-3.56606e-47
7.88861e-31
1.2326e-32
-7.24411e-47
7.88861e-31
4.76988e-46
4.62223e-33
-3.9443e-31
3.9443e-31
2.66223e-47
6.16298e-33
1.95879e-47
-2.31112e-33
-1.50463e-36
1.06557e-57
-1.54074e-33
-1.15556e-33
-9.86076e-32
5.26076e-47
-5.36134e-48
3.61112e-35
-6.16298e-33
-9.9105e-51
3.01073e-48
1.97215e-31
9.86076e-32
-2.6591e-48
3.10543e-48
2.04288e-47
4.93038e-32
-2.63185e-48
2.78653e-48
-5.7131e-53
-2.45217e-48
9.86076e-32
3.08149e-33
7.70372e-34
3.6013e-48
-8.95968e-54
7.70372e-34
-3.08149e-33
5.64108e-48
-9.86076e-32
5.77779e-34
-3.22691e-60
2.19846e-55
1.50463e-36
1.54074e-33
-1.68985e-53
4.7518e-49
1.37681e-54
-1.44492e-54
-1.2326e-32
-4.423e-50
-1.2326e-32
2.57773e-55
1.50463e-36
1.28572e-55
3.08149e-33
3.76158e-36
-1.50463e-36
1.54074e-33
2.40741e-35
-4.81482e-35
-7.70372e-34
9.62965e-35
-7.52316e-37
6.16298e-33
-2.88889e-34
-2.88889e-34
-1.92593e-34
-6.16298e-33
3.54059e-50
-2.07728e-53
-4.06479e-50
-6.16298e-33
-1.92593e-34
1.92593e-34
3.85186e-34
3.85186e-34
-1.20264e-53
-4.62223e-33
-3.85186e-34
-1.2326e-32
1.54074e-33
-9.86076e-32
-4.93038e-32
-3.79009e-55
-6.01853e-36
1.94403e-52