/*--------------------------------*- C++ -*----------------------------------*\
| =========                 |                                                 |
| \\      /  F ield         | OpenFOAM: The Open Source CFD Toolbox           |
|  \\    /   O peration     | Version:  2006                                  |
|   \\  /    A nd           | Website:  www.openfoam.com                      |
|    \\/     M anipulation  |                                                 |
\*---------------------------------------------------------------------------*/
FoamFile
{
    version     2.0;
    format      ascii;
    class       volScalarField;
    location    "20000";
    object      I1_20;
}
// * * * * * * * * * * * * * * * * * * * * * * * * * * * * * * * * * * * * * //

dimensions      [0 0 0 0 0 0 0];


internalField   nonuniform List<scalar> 
14751
(
-5.95706e-31
8.92303e-27
1.70885e-25
-1.46994e-27
2.65432e-26
-7.60117e-26
6.14399e-25
-3.23275e-26
9.27503e-26
1.31724e-27
6.63793e-26
-2.55801e-28
-7.87849e-26
4.48256e-26
8.06272e-27
-6.19177e-26
-8.936e-27
2.01764e-26
2.74941e-26
4.7169e-27
-3.38935e-28
-2.30323e-26
2.38426e-26
-2.64184e-26
3.81595e-27
1.03942e-27
-7.6947e-28
1.21052e-26
5.46922e-28
8.58401e-28
1.26278e-27
-6.37588e-28
4.04989e-27
4.42242e-27
-3.59359e-28
3.74545e-27
-3.50424e-27
-1.20918e-28
1.94038e-28
-3.39302e-29
1.43013e-26
9.22367e-30
-1.11476e-26
-3.71526e-30
-3.77808e-27
5.71003e-27
4.88342e-29
-4.92884e-27
4.71832e-31
1.82992e-27
1.53564e-28
-7.21124e-27
-6.76587e-29
7.48286e-29
-1.33797e-28
-1.65508e-28
-7.08149e-27
-8.72266e-27
-2.85237e-26
8.15671e-27
3.34781e-26
7.49838e-26
8.90833e-27
-6.71225e-26
-9.99033e-27
2.26148e-26
8.95099e-28
-3.51249e-26
-1.11746e-26
8.6044e-27
1.31771e-26
-1.08599e-26
3.27264e-26
2.53218e-26
1.21479e-26
1.16484e-26
-4.08835e-26
-6.08017e-26
-2.4976e-26
-5.17408e-26
4.53565e-26
2.73814e-26
5.13847e-26
-6.40063e-26
-2.63906e-26
1.71903e-25
4.67535e-26
-5.02652e-26
0
-8.09532e-26
1.14139e-27
2.222e-25
2.83569e-27
5.44214e-27
-5.39611e-28
5.11303e-26
1.33313e-27
-1.61429e-26
4.42472e-28
1.68572e-23
7.86505e-24
-1.49857e-23
9.62747e-24
-2.59469e-23
-1.09911e-22
-2.33652e-23
2.00196e-22
2.68338e-23
-7.70326e-24
2.40206e-23
-1.51763e-22
-2.51119e-23
7.22722e-23
8.60414e-24
-1.27967e-23
6.21159e-25
2.57307e-23
4.817e-24
-1.70775e-23
-1.91809e-23
1.34074e-23
2.02968e-24
-2.03918e-23
1.72047e-23
-1.61832e-24
1.13293e-23
1.81572e-24
-1.19792e-23
-8.83196e-26
3.01945e-25
4.40817e-24
5.12616e-24
-4.52625e-24
1.86396e-25
-6.51865e-24
-4.1523e-24
5.89846e-24
-2.60979e-25
-3.01135e-25
1.77616e-25
7.43698e-28
-5.18673e-26
-9.56564e-26
1.78104e-24
5.32483e-25
-2.28787e-24
-2.78421e-25
-2.38747e-25
6.45329e-25
-1.33841e-25
-6.13237e-25
6.84845e-26
6.51261e-25
-2.86866e-25
-3.20159e-25
3.08224e-25
1.05144e-25
1.35184e-24
-3.42054e-25
-1.39839e-24
-1.8983e-23
-1.46422e-23
3.88465e-23
1.51342e-23
-2.08724e-23
3.90171e-24
2.53247e-24
1.87332e-23
-1.22685e-24
-2.83365e-23
-3.48235e-23
-4.13302e-23
4.10429e-23
5.95093e-23
5.14442e-23
4.27256e-23
-7.39033e-23
-4.97083e-23
-5.39216e-23
-3.07226e-24
3.96353e-23
1.25867e-23
-6.56981e-25
-1.28399e-22
1.25251e-23
1.23548e-22
-3.28031e-24
6.32055e-24
-9.47804e-25
-1.16092e-22
-4.58369e-24
1.29646e-22
2.32223e-24
-5.30826e-23
-4.65559e-24
4.74906e-23
7.63943e-25
5.90237e-25
-1.59453e-23
-4.16323e-22
-4.93467e-21
4.59314e-21
-2.30946e-21
-2.55286e-21
2.81338e-21
-1.99096e-21
-2.31354e-21
5.27992e-22
2.16539e-21
-1.38267e-22
6.24384e-22
4.43293e-22
9.80937e-22
-9.79663e-22
-6.34719e-23
-2.16594e-22
-1.44714e-22
1.58311e-22
1.74626e-22
-1.19604e-23
-7.1178e-22
-4.46455e-22
3.16743e-22
2.3748e-24
-2.64577e-22
2.62945e-22
1.14074e-22
-2.58527e-22
2.78823e-22
3.57991e-22
-1.99107e-22
-1.65436e-22
-1.28236e-22
7.56914e-23
-1.10579e-22
4.99473e-24
1.28775e-22
-5.57922e-24
1.13437e-23
-6.30651e-24
6.35163e-23
1.35934e-23
-1.10404e-22
-1.80742e-24
2.62008e-24
-2.59499e-23
4.80184e-23
-3.76287e-23
9.03994e-24
2.53496e-23
9.82195e-23
-2.39644e-23
1.14714e-22
-8.32857e-23
-2.12565e-22
-2.09989e-23
4.55759e-23
1.97814e-23
4.36293e-22
2.79845e-23
-7.61895e-22
-4.07033e-22
-3.56551e-23
-6.18697e-22
6.21383e-22
1.11997e-21
-1.20738e-21
1.37395e-21
2.33542e-21
-8.24574e-22
-5.15492e-22
-4.65383e-22
-5.6224e-22
-7.6585e-22
1.89329e-21
3.03337e-22
-2.07365e-21
4.21755e-22
2.16928e-21
1.13878e-21
-2.52893e-21
-2.02711e-21
1.02829e-21
-1.5969e-23
-1.3278e-21
7.3598e-23
1.66925e-22
-2.42027e-21
7.85107e-22
4.83376e-21
-2.62523e-21
-2.25219e-21
2.50007e-21
-7.01371e-22
-6.12486e-22
1.12082e-21
1.54306e-25
1.69744e-23
5.2498e-20
5.13174e-20
9.68634e-21
1.03739e-20
2.37857e-20
-1.34049e-20
-2.78778e-20
3.78925e-20
-2.42909e-20
2.31693e-20
-9.27142e-21
3.19291e-22
-7.32721e-21
-1.32654e-20
7.18823e-21
-1.13309e-20
-9.31076e-21
3.80943e-20
7.47986e-21
-1.01967e-20
-6.07515e-21
-8.92906e-21
1.47234e-20
-1.15687e-21
3.9041e-21
4.449e-21
-4.88586e-21
-3.0461e-22
4.61819e-21
-4.87141e-21
-5.8548e-21
4.61648e-21
1.575e-21
-8.7107e-22
-2.75184e-22
2.37187e-21
2.0994e-21
-6.98632e-22
2.1723e-21
1.23313e-21
-5.51988e-22
1.4327e-21
2.68119e-22
-7.56188e-22
4.78417e-22
5.60807e-22
-3.55281e-22
5.38924e-23
2.91163e-22
9.1996e-22
-7.31263e-22
-1.80984e-21
6.29318e-22
-1.17367e-21
1.28596e-21
1.2017e-21
3.9072e-21
-9.11606e-21
4.38797e-22
3.71337e-21
1.32768e-21
7.53649e-21
6.42511e-21
-4.5342e-21
-2.39235e-21
-9.21537e-21
-2.15405e-20
1.61969e-20
1.69347e-21
-1.18188e-20
1.15765e-20
7.30414e-21
1.18986e-22
3.13084e-23
3.64937e-23
-1.83258e-20
9.40915e-21
1.64904e-20
2.85299e-20
-2.48358e-20
-6.12482e-20
2.54978e-20
3.69942e-20
1.60766e-22
-2.25801e-20
3.10448e-21
2.20188e-20
2.1633e-20
1.19416e-20
-1.81178e-20
-1.96321e-20
4.80037e-21
2.39101e-20
-9.30911e-22
-1.26389e-20
4.65626e-21
-5.399e-21
-1.76334e-20
-3.48109e-21
-9.62395e-20
-1.18739e-19
1.46231e-20
1.53599e-19
-1.33225e-19
-3.2352e-19
2.5804e-19
-1.19659e-19
1.21117e-19
-1.72191e-19
5.36929e-20
-8.34229e-20
-2.23049e-19
9.03962e-20
1.90699e-21
2.0793e-20
6.97646e-20
-1.18664e-19
2.39957e-20
-3.08611e-23
5.18905e-20
1.15846e-19
-5.43215e-20
2.59766e-21
-1.4978e-20
-1.33735e-20
1.36026e-20
-2.36662e-20
-3.05279e-20
1.68491e-20
2.07612e-20
2.64193e-22
-4.62647e-22
-4.31049e-21
1.06593e-20
-8.62201e-22
-1.17573e-20
2.05006e-21
-2.21992e-20
4.55654e-22
-1.6934e-20
8.831e-21
3.91548e-20
9.93448e-20
-6.76409e-21
-3.49811e-20
-3.58945e-21
7.89296e-21
-3.54669e-21
-1.65412e-21
-1.23409e-21
8.3231e-21
6.13866e-21
1.30151e-20
1.46835e-20
-5.9814e-21
-5.7513e-20
1.0324e-20
-3.31228e-20
-2.57661e-21
2.26468e-20
5.36717e-20
-7.14958e-20
-2.53669e-20
2.3424e-20
5.48308e-20
1.18598e-20
-9.0437e-20
4.76321e-20
-6.23123e-20
-1.00303e-19
8.66357e-21
5.53892e-21
-4.66639e-21
7.06661e-20
-4.6401e-20
-1.52677e-19
3.61177e-20
-3.83531e-21
-2.61953e-20
1.7128e-19
2.64375e-20
-7.04963e-20
4.803e-24
6.19298e-20
9.65289e-20
-7.00796e-20
-1.43e-19
6.14959e-22
1.3059e-19
2.75728e-20
-4.63364e-20
-4.11914e-20
-7.66275e-20
1.81204e-20
-3.69763e-20
-1.00605e-20
2.92664e-19
-2.2551e-19
-7.62133e-20
1.22834e-19
-1.61249e-19
-7.14795e-19
-3.03067e-19
1.17307e-18
2.74986e-19
-2.31806e-19
9.9952e-23
6.68157e-21
1.40815e-19
7.0677e-19
3.75372e-19
-1.55276e-19
-5.40654e-21
-1.04972e-19
-3.42513e-19
4.24149e-19
-7.12107e-19
1.39274e-19
-2.85735e-20
-1.46674e-19
5.3128e-20
8.08583e-21
-4.07476e-20
-1.02507e-19
-4.55941e-20
2.36903e-20
6.87489e-20
-9.60687e-21
7.85466e-21
-3.3121e-20
-2.24136e-20
-5.56267e-22
-1.74903e-22
-3.53737e-22
-7.84679e-22
-3.96961e-20
2.54989e-20
-7.94958e-20
1.55903e-19
1.6726e-20
-4.18215e-21
-3.59033e-20
4.77528e-21
5.70244e-20
-1.45841e-20
-1.47236e-20
1.062e-20
-6.22412e-21
6.17286e-21
-9.83881e-21
-9.99183e-21
-6.06212e-20
2.74496e-20
2.45226e-20
1.21363e-19
1.51915e-19
-4.88688e-20
-1.9475e-19
-2.58963e-20
7.97951e-20
1.63254e-19
7.44995e-20
-1.49247e-20
-2.03257e-19
3.83914e-19
6.39733e-20
-4.29181e-19
4.27065e-19
1.29448e-19
-1.17625e-19
-7.49638e-23
2.34739e-22
-3.45841e-19
3.57822e-19
4.2076e-19
-3.22064e-19
5.48066e-20
5.57768e-19
-2.05376e-19
-3.20123e-19
-1.47286e-20
2.13993e-20
6.95286e-21
-3.19585e-19
2.45981e-19
2.7594e-19
-1.06277e-19
-8.85361e-20
-6.08657e-20
6.40475e-23
6.80383e-21
-1.80665e-19
-8.23759e-20
6.09636e-19
2.86457e-19
4.9513e-19
-9.95643e-20
-5.42494e-19
-7.22275e-19
-5.01016e-19
1.20559e-18
1.62153e-18
-1.31512e-18
-2.31831e-18
-1.20165e-18
5.32516e-19
-4.20489e-19
-2.01113e-18
-5.27147e-19
2.01819e-19
1.62414e-19
7.97536e-19
7.30485e-20
1.31788e-18
-8.08384e-19
7.57923e-19
-1.82166e-19
1.80411e-20
2.65124e-20
5.17336e-20
3.39898e-19
-5.29769e-20
8.73626e-20
-8.47549e-20
1.40279e-19
3.76417e-20
-6.86264e-20
-4.96384e-21
4.4828e-20
1.14063e-20
-7.82551e-22
-4.68927e-20
-7.74953e-20
1.28351e-19
1.59258e-20
1.03192e-20
2.68942e-19
-2.53407e-19
-7.36718e-20
1.37723e-21
3.73328e-21
1.1223e-21
-1.19272e-20
7.59335e-21
1.57234e-20
1.38113e-20
-1.44898e-20
-7.33533e-21
-2.26859e-21
9.47118e-22
3.85113e-20
-6.37036e-20
7.44954e-20
-1.87343e-19
-1.72231e-19
1.8745e-19
-4.24865e-20
-9.86916e-21
-1.20991e-19
-6.72581e-20
4.47877e-21
-1.5763e-19
3.5494e-19
-2.03246e-19
1.06921e-19
2.36054e-19
-3.56658e-19
9.11335e-20
1.63279e-19
-2.41531e-20
-5.01343e-21
2.56646e-19
-3.30312e-19
-2.70638e-19
2.27739e-19
-2.22136e-19
-4.99035e-19
2.75868e-19
2.20189e-19
-4.51988e-19
-1.02594e-19
6.38204e-19
4.94e-19
-5.72077e-19
-2.41015e-19
6.74859e-20
-2.65738e-20
1.90553e-20
-4.79587e-22
-1.48886e-19
2.63381e-19
-9.14781e-21
8.90728e-19
2.3052e-18
-1.75192e-19
5.58002e-19
1.03657e-18
8.52242e-19
9.24613e-19
-3.2217e-18
-3.85259e-19
6.20947e-19
1.7372e-18
2.64053e-18
1.89983e-18
-4.21498e-19
-3.57111e-19
-1.96098e-18
2.5763e-18
-4.7536e-19
-9.6046e-19
-2.28327e-19
-2.78293e-18
3.9151e-19
-1.99104e-20
1.51382e-21
-3.70996e-23
-6.42831e-20
-5.32141e-19
-2.96546e-19
3.54385e-19
-2.8317e-19
2.3679e-19
-6.3433e-20
-5.73448e-20
4.58965e-20
-2.27243e-20
2.68009e-21
-6.77104e-20
2.45135e-20
4.22869e-20
9.47415e-20
-3.72207e-19
6.30399e-20
5.2964e-19
-1.06069e-20
-1.05223e-19
1.13034e-19
6.34173e-20
-3.5292e-20
6.19806e-20
9.25875e-21
4.23606e-20
-3.98851e-21
-1.29884e-20
1.90036e-20
-2.26405e-20
6.95427e-20
-3.4173e-22
7.07515e-20
3.06942e-20
-6.14324e-20
2.13095e-19
-1.03635e-19
-1.03176e-19
2.09443e-19
-1.04993e-19
-4.07755e-20
2.7447e-21
1.0199e-19
-1.8134e-19
-5.49261e-19
2.12066e-19
6.77864e-19
3.78721e-19
-6.33476e-19
3.51577e-20
6.72349e-19
1.80999e-19
-2.0883e-19
4.40199e-19
5.2316e-19
-6.9478e-19
-6.75945e-19
1.01815e-18
-6.12028e-19
1.97914e-19
2.91463e-19
-3.46263e-21
-1.99444e-20
-6.46362e-21
-1.16051e-20
9.81634e-21
1.36287e-19
1.81337e-20
1.07636e-20
2.36429e-19
4.52859e-19
-4.68461e-21
1.19274e-20
3.06688e-18
3.39197e-19
-9.6706e-19
-1.84032e-21
-1.20055e-19
4.84283e-19
7.59178e-19
-9.15737e-19
3.52917e-18
2.69513e-18
2.25997e-18
-5.17162e-19
-4.56617e-19
-3.43723e-18
-2.24454e-18
3.60208e-18
2.59753e-18
-2.27426e-19
4.83849e-20
2.51157e-18
3.03416e-20
2.24703e-18
-2.37077e-19
6.16125e-20
-3.9964e-21
3.54131e-22
-3.08695e-20
-5.10263e-19
3.23169e-20
4.06311e-19
2.69226e-19
-2.76755e-19
-1.41131e-19
5.35509e-22
-3.5818e-20
-3.09226e-20
1.08062e-19
-6.26008e-20
2.91797e-19
-5.5782e-20
-1.93177e-19
-3.27301e-21
-3.06723e-19
-3.98134e-21
2.78973e-19
2.91086e-19
-1.23745e-19
2.58161e-20
2.23718e-19
-1.16755e-19
4.17358e-20
-1.60843e-20
-8.20554e-21
-5.85817e-21
8.0366e-21
4.48047e-20
8.54519e-21
6.53985e-20
-2.9401e-19
1.15728e-19
3.52266e-20
-4.51127e-20
1.72922e-19
3.26211e-20
-3.62289e-21
3.92967e-21
-4.86386e-21
1.29245e-19
-8.31129e-19
7.76173e-19
3.6756e-19
-3.15503e-19
-1.43926e-18
1.20632e-19
9.92498e-19
-8.01737e-19
-7.56626e-19
-1.57423e-19
-1.30451e-19
4.71506e-19
-3.9016e-19
1.72063e-18
7.23704e-19
-7.83266e-19
-2.05955e-19
-2.59807e-20
2.23846e-19
-3.27815e-19
-4.82228e-19
-5.24839e-19
-2.25373e-19
2.53962e-19
-7.41266e-20
-1.10246e-19
5.63219e-19
6.94737e-19
-9.7974e-19
-1.9671e-18
-3.12576e-18
3.89436e-18
1.12423e-18
4.03755e-23
-8.12136e-20
-2.54505e-19
-1.27885e-18
-2.54622e-18
6.18429e-19
-4.95203e-19
-3.74388e-18
-2.93285e-18
4.30598e-19
-3.46312e-19
-3.19439e-18
3.96919e-18
-1.2037e-19
3.13225e-18
-3.54294e-18
-2.00213e-19
-6.03335e-18
-2.2898e-18
2.62505e-18
-2.44434e-18
3.78879e-20
5.32559e-21
1.28473e-19
1.47872e-18
1.18366e-18
-1.13149e-18
-8.60651e-19
1.02482e-20
2.62237e-19
1.91636e-19
1.96308e-20
-3.90591e-21
-9.40322e-20
-4.10494e-20
4.19028e-19
-4.90118e-19
4.83572e-19
-4.26887e-19
4.97008e-19
-2.21636e-19
-2.07854e-19
-6.15948e-19
-8.1092e-20
2.11948e-19
-1.00218e-19
-5.73512e-20
9.68726e-20
-6.53982e-20
-7.58989e-21
-4.19398e-20
-2.86862e-21
-2.93465e-20
3.48008e-20
-2.33627e-20
1.47422e-19
2.46442e-19
-1.48559e-19
-3.78594e-20
-6.28445e-20
4.14845e-19
-3.01128e-19
-6.90793e-20
1.23431e-19
-6.83679e-19
-2.66498e-19
9.555e-19
-1.32085e-18
-1.52833e-19
-2.18652e-19
1.44853e-18
-4.78868e-19
-1.83585e-19
3.59184e-19
1.33895e-18
1.13813e-19
2.18597e-19
-1.12237e-18
3.0562e-20
-1.0085e-18
-1.77512e-19
2.01879e-20
1.24559e-19
-7.67524e-19
-2.25162e-19
6.31728e-19
9.932e-20
7.15901e-20
-3.60757e-19
-4.10672e-19
3.08407e-19
2.72426e-19
3.31203e-19
-1.31382e-18
-2.06223e-18
5.58194e-18
4.13558e-18
-8.56927e-19
-1.40307e-18
-8.86313e-21
-2.99794e-20
8.35149e-20
-3.10838e-19
-1.00227e-18
4.03486e-18
3.09323e-18
-3.87722e-19
6.53648e-20
-5.00156e-20
3.06562e-19
4.60793e-18
7.31342e-18
-8.658e-18
-3.33823e-18
-2.41163e-19
-6.84724e-18
3.54268e-18
-3.01897e-18
3.02053e-18
2.54838e-18
-7.83843e-20
5.5746e-20
1.77433e-18
-1.69942e-18
1.55572e-19
2.34513e-18
6.71319e-21
-7.75286e-19
-4.17418e-20
3.79541e-19
4.96697e-21
1.37777e-19
3.45907e-19
9.07414e-20
-4.06264e-19
-4.24864e-19
9.67112e-20
4.14834e-19
-2.79507e-19
4.40115e-19
1.63103e-19
7.55977e-20
-2.33609e-19
-2.03185e-19
-3.8697e-20
-2.36739e-21
-1.04043e-21
1.90411e-20
-9.8624e-20
3.38633e-20
6.30549e-21
2.66432e-20
-1.78053e-19
-1.20855e-19
-4.13757e-20
1.94484e-19
6.87881e-20
-3.90866e-19
5.65391e-20
-8.53328e-19
3.18988e-19
4.65112e-20
-3.61911e-20
4.16635e-20
3.53261e-21
-1.02792e-21
-8.84108e-20
7.81813e-19
1.14493e-19
-7.85475e-19
1.15424e-19
-1.38247e-18
-1.7453e-20
-1.35211e-18
-1.25733e-19
1.33481e-19
-1.17699e-18
-1.1714e-19
1.67229e-19
-1.07727e-18
-1.69583e-21
-9.19338e-19
-2.32502e-19
1.58604e-18
-2.01481e-20
1.2858e-18
-1.04052e-18
1.39617e-18
-5.34124e-19
-5.30857e-19
1.73095e-18
-1.22463e-18
-3.08497e-18
4.79659e-18
2.71514e-19
1.6284e-18
2.62491e-18
5.30132e-20
-1.7454e-18
4.58331e-19
-2.19517e-22
1.02935e-18
7.20044e-18
-1.41821e-18
-4.07949e-18
1.11146e-18
8.13019e-18
-9.71657e-18
5.88043e-19
-5.85918e-19
-9.07175e-18
4.96572e-19
3.19742e-20
2.99674e-19
7.88763e-18
1.71533e-19
1.35832e-17
-6.72714e-18
3.31907e-19
-1.67887e-19
-3.70841e-20
-2.11798e-18
-1.76728e-18
1.5474e-18
-2.6176e-18
-6.3647e-20
8.52155e-19
1.08779e-19
-3.68523e-19
-2.50976e-19
-2.46293e-19
-3.5744e-19
-2.6557e-19
-1.27005e-19
6.59963e-19
7.27762e-19
-1.21483e-19
-6.95979e-19
9.40677e-20
-5.46783e-21
2.84102e-19
4.09985e-20
7.49707e-20
-3.13252e-19
-2.26639e-19
-4.15064e-20
1.71441e-19
1.26119e-19
-3.79719e-20
-4.95136e-21
-1.21066e-20
1.09306e-19
2.98563e-20
-2.03073e-19
-2.29926e-19
-4.54396e-20
4.07169e-19
4.21397e-19
4.80507e-19
3.00372e-20
7.9028e-20
-9.13511e-19
7.57379e-19
2.76832e-20
8.61177e-19
2.17073e-19
-2.53288e-18
-2.00624e-19
1.75211e-19
-1.68337e-18
1.54641e-18
-1.38928e-18
-2.23264e-20
-5.54194e-20
-8.54455e-20
1.3589e-18
1.65071e-19
-6.53388e-20
1.14327e-18
-6.72344e-20
2.19267e-18
-1.64433e-18
-3.71116e-18
1.63343e-18
-1.46765e-18
1.29664e-20
-9.45057e-19
9.09928e-19
-4.45311e-19
-1.3326e-18
2.42062e-18
1.42621e-19
6.57483e-18
-8.16522e-21
-4.95194e-18
-1.64522e-18
-2.95534e-19
2.91477e-18
-7.2027e-19
1.05758e-19
-4.72331e-19
-4.97658e-18
-7.343e-18
1.00277e-17
-2.01286e-18
-1.93126e-17
1.14397e-17
-5.33298e-19
4.34621e-19
1.01706e-17
-3.39446e-19
-5.10334e-21
-4.00839e-19
-8.56308e-18
-2.28868e-19
-7.40957e-18
3.05736e-19
6.34554e-18
-8.47768e-20
-1.58304e-20
-1.19606e-19
2.232e-18
-1.69586e-18
1.32078e-18
3.77528e-20
-8.32432e-20
7.47169e-19
-1.59819e-20
4.30631e-19
6.57662e-20
-2.99616e-19
1.83354e-20
-1.53525e-20
3.73691e-19
-5.8773e-19
2.49018e-19
2.8472e-19
-5.196e-19
-1.0459e-19
2.68903e-21
-8.55362e-21
-3.65208e-20
3.65799e-19
6.059e-20
-1.67007e-19
-2.29528e-19
-2.7717e-20
5.69125e-20
1.12658e-21
9.11912e-21
-1.11258e-19
1.40749e-20
-2.72257e-19
4.58699e-19
3.13116e-20
2.83022e-20
-4.28424e-19
-9.83873e-19
-9.33226e-20
8.76779e-19
1.04314e-18
-1.23918e-20
1.02399e-18
-8.44706e-19
-1.08549e-18
1.85341e-18
2.54781e-20
-1.19997e-19
3.63177e-18
5.26872e-20
1.75639e-18
2.20669e-19
-1.74764e-18
1.29634e-19
-3.1032e-18
-1.13128e-19
-9.64573e-20
1.61052e-19
-1.40712e-19
2.28622e-18
2.34503e-18
2.09187e-18
-2.05436e-18
5.04953e-19
2.73646e-18
-1.3117e-18
-6.82625e-19
2.11999e-18
-3.7956e-18
-3.78043e-18
2.01788e-17
-1.86191e-18
-4.04192e-18
3.49031e-18
-7.79503e-19
-2.77257e-19
-1.30803e-18
3.28162e-19
-3.62159e-19
4.29039e-19
4.95097e-18
4.5069e-18
-4.51936e-19
1.15033e-18
2.21524e-17
-1.1923e-18
8.88061e-20
-4.44464e-19
-1.08419e-17
1.12472e-17
-5.0375e-19
3.60545e-19
9.53258e-18
-4.58693e-19
2.97357e-19
-1.08768e-19
-6.75781e-18
-1.91191e-19
-5.57484e-18
-1.4725e-19
1.19668e-19
4.75141e-21
-1.86128e-21
1.02335e-19
-1.95551e-18
-9.61339e-19
-1.23625e-19
-1.95671e-19
1.5439e-19
4.36598e-19
-4.01462e-22
1.10728e-18
-1.20374e-18
-1.15817e-19
-2.05943e-21
3.66289e-19
7.03998e-19
-2.15182e-20
5.72399e-19
7.84541e-19
6.1836e-20
-2.35722e-21
-2.6775e-20
4.56566e-19
-1.96844e-19
-4.23466e-21
-1.16689e-19
-1.55575e-20
5.64617e-20
1.26243e-19
-2.19457e-20
5.47725e-19
-4.81979e-19
-2.5116e-20
-1.58902e-20
-1.23024e-19
2.12989e-18
1.28117e-18
-2.13239e-18
-1.01172e-19
5.18301e-20
-8.65075e-20
-7.08443e-21
2.14279e-18
4.87223e-20
8.32759e-20
1.43029e-20
-2.03214e-18
-1.1382e-19
-1.23631e-19
3.77735e-18
2.01156e-18
3.5892e-18
3.60004e-18
-3.33565e-18
-5.43128e-20
1.15305e-19
2.0111e-20
-2.89541e-18
-2.60985e-18
-2.24166e-18
7.26917e-20
1.00955e-20
-5.35574e-20
5.06605e-19
2.48287e-20
-3.43973e-19
8.17251e-18
-3.9941e-18
-8.06791e-18
-3.03461e-18
-2.26041e-18
1.68095e-18
-1.6715e-19
-5.35908e-20
-1.59329e-20
-4.86441e-20
-1.39803e-19
-4.81868e-18
-4.78088e-18
-2.42794e-19
-1.1383e-17
9.59102e-20
-1.28319e-17
-1.13621e-17
1.2983e-17
-3.8905e-20
1.22414e-17
-6.63285e-19
-1.1585e-17
-1.10003e-17
3.29167e-19
5.23274e-20
-2.57714e-20
-8.93069e-20
-7.46512e-18
7.95323e-20
6.24746e-18
-1.31727e-19
-4.63982e-18
-6.76887e-20
-6.73538e-21
-1.59737e-19
4.29982e-18
4.86936e-19
-1.83941e-19
3.93313e-19
2.93964e-20
1.76527e-19
1.33214e-18
-1.06433e-18
3.5086e-19
2.77794e-19
-1.86201e-20
1.5139e-20
-2.78932e-20
4.23432e-20
5.26914e-20
-7.64854e-19
-1.13643e-19
4.74635e-19
-4.43752e-19
1.76504e-19
2.73024e-19
-7.44255e-22
1.28596e-19
1.82615e-20
-6.29682e-20
-2.16492e-20
2.84425e-19
-3.0495e-19
5.78388e-19
2.3509e-20
2.50522e-22
9.28364e-20
-2.38369e-18
-1.38603e-18
2.4443e-18
-5.57165e-20
2.46641e-18
-1.11359e-18
-1.50949e-19
2.40167e-18
-8.0538e-20
2.38219e-18
2.4502e-18
-2.23973e-18
-3.8307e-20
2.73516e-20
-4.3376e-18
-1.66438e-20
-4.0696e-18
-3.56213e-19
4.02862e-18
-1.18201e-19
3.7795e-18
-2.00413e-20
-7.33385e-20
1.36053e-19
3.45913e-20
-7.66117e-20
-2.41266e-19
-1.75754e-18
-2.93405e-20
1.07128e-18
-2.42213e-19
-8.48578e-18
7.9106e-18
-2.56931e-18
3.0664e-20
6.78579e-18
8.45262e-19
-6.38361e-18
-2.31055e-18
-2.68344e-18
5.27181e-19
1.08159e-18
9.16612e-18
-1.11132e-17
1.15978e-17
-1.29715e-17
5.808e-19
1.09155e-18
2.76381e-17
1.26065e-17
-7.36266e-19
-1.33529e-17
3.40697e-20
-1.18865e-17
1.22893e-17
1.92453e-19
2.03728e-17
-1.01872e-17
4.39686e-19
8.08381e-18
-2.39926e-19
1.98682e-19
5.53278e-18
5.39188e-18
3.71597e-20
-3.62278e-18
-1.56139e-19
2.24798e-21
-2.97571e-20
5.2584e-19
-1.13556e-18
-6.39917e-19
-1.14806e-18
-1.62846e-18
6.37883e-19
2.86187e-19
-6.34039e-21
-2.69615e-21
7.35976e-20
-6.68172e-19
2.87683e-20
-7.85938e-19
-5.29814e-20
3.29747e-20
-5.42994e-19
9.54737e-19
5.88132e-20
4.51593e-21
3.21838e-22
1.3771e-21
-7.25196e-21
1.43093e-19
2.38199e-20
-3.1301e-19
1.51786e-20
-6.69179e-19
-8.82732e-22
2.32271e-20
-1.03332e-19
1.36894e-18
1.477e-18
-2.68445e-18
-2.67962e-18
-2.83619e-18
1.21293e-20
-2.72447e-18
-7.86948e-21
-1.22605e-19
-2.62374e-18
-1.06942e-19
2.63663e-18
-4.76116e-21
5.06131e-18
-8.4183e-20
2.70425e-20
-4.52636e-18
-1.03988e-20
-3.03046e-20
6.07789e-22
-1.77249e-19
1.69747e-21
1.8087e-19
3.43775e-18
2.8141e-18
2.71973e-19
4.8028e-18
-9.17223e-19
9.08766e-19
2.50287e-18
-9.34786e-20
-6.38405e-18
-1.1591e-18
6.16027e-18
2.10386e-18
6.0581e-21
-3.42265e-18
1.12528e-17
-5.04894e-18
5.22079e-19
2.72788e-20
-7.12316e-19
-4.82703e-18
1.13339e-17
-2.56147e-17
1.48488e-17
-5.49801e-19
4.83695e-19
1.37131e-17
-2.99701e-17
7.35456e-19
5.34265e-20
5.11211e-19
2.69145e-17
-9.03618e-20
2.34351e-17
-2.20769e-17
1.03767e-17
-1.59054e-19
-1.7663e-17
7.85483e-18
7.27714e-18
-6.36215e-18
8.7531e-20
-2.35705e-19
3.92184e-18
1.66282e-19
7.8572e-20
8.45909e-21
-4.18022e-19
2.3884e-19
1.23294e-18
1.82476e-18
1.39437e-18
3.01494e-19
2.87906e-19
-8.32152e-19
-1.33342e-18
-3.35731e-19
1.43734e-18
1.53329e-19
-9.28668e-20
9.74752e-19
-3.20716e-20
1.0529e-18
-4.95517e-19
2.1387e-21
-5.81134e-19
-2.23041e-20
-1.40234e-23
5.72897e-21
-1.75965e-19
3.31295e-19
6.6618e-22
1.14655e-20
-1.48274e-20
2.19635e-20
3.74747e-22
4.35989e-22
-1.07086e-20
3.68352e-22
1.44213e-18
3.20471e-18
-3.04467e-18
-7.87601e-20
3.1867e-18
-6.10113e-18
-6.737e-20
5.05083e-20
-2.99627e-18
-2.7812e-20
5.72729e-18
-6.1539e-20
1.0489e-21
-1.71376e-19
3.9193e-19
-1.61414e-19
-3.75776e-22
-2.71525e-20
-4.5107e-18
6.11681e-20
1.04679e-21
8.42833e-20
-4.99042e-19
-6.14049e-18
5.32808e-19
1.06571e-18
3.37484e-18
-5.64615e-18
-1.69978e-18
7.45126e-18
-1.62013e-18
-8.25961e-18
-8.34986e-18
-1.30905e-18
-4.38516e-18
-4.15901e-18
8.11049e-18
-7.67778e-19
-2.60287e-20
-3.54556e-19
3.1886e-20
1.18967e-18
2.79899e-17
-1.27521e-18
5.74491e-20
-8.61082e-19
-3.12939e-17
3.28204e-17
-7.0562e-19
6.18431e-22
0
-8.74231e-20
6.05154e-20
-4.09506e-19
-2.38887e-17
2.2318e-17
2.09107e-17
1.86523e-17
-2.53326e-17
7.43999e-18
8.83399e-20
-1.86175e-19
4.88205e-20
4.22788e-18
3.65176e-19
-2.60049e-18
-2.8381e-18
1.24526e-18
5.82928e-19
1.18408e-18
-1.10343e-18
-1.72321e-18
2.79642e-20
-1.1697e-18
7.64185e-19
1.42113e-18
3.29975e-19
-1.59445e-18
-4.11189e-20
-9.40314e-19
-1.0698e-18
2.06385e-20
-1.1107e-18
-4.0716e-20
-3.57053e-20
6.55702e-19
2.04072e-20
-4.21934e-23
-3.85551e-21
1.97254e-19
-3.77055e-19
-8.9588e-21
3.27556e-21
7.93506e-19
-9.99611e-21
6.594e-21
-7.29737e-21
3.55795e-20
-1.69935e-18
1.49893e-20
-3.38293e-18
3.28406e-18
3.47945e-18
1.37656e-20
-3.73623e-20
1.38212e-19
-1.0751e-19
2.71772e-19
-6.93475e-18
-4.74314e-20
-1.2659e-17
-2.13592e-19
1.90774e-19
5.98019e-18
-2.26636e-19
-5.43767e-20
2.52451e-19
1.02946e-17
-1.55688e-19
-8.51039e-20
1.39522e-19
5.69022e-19
6.50898e-18
-6.86247e-18
-1.13161e-18
-8.4297e-18
8.44408e-18
7.3647e-18
4.86865e-19
-2.19741e-18
2.46315e-19
7.13883e-18
-1.02285e-18
5.80654e-18
-7.61304e-19
6.02799e-19
8.51846e-18
-8.26459e-19
4.0034e-20
-6.42369e-18
-2.28597e-19
-1.64235e-17
-3.15614e-17
2.05915e-18
3.30348e-17
-3.59027e-17
-3.38723e-17
5.55388e-19
2.65413e-19
2.89841e-21
8.06987e-19
2.87267e-17
-2.83153e-17
2.67072e-17
-4.90917e-17
4.63976e-19
-6.28909e-19
3.63956e-17
-1.56882e-17
1.42075e-17
3.77594e-19
-2.28646e-19
-4.45916e-18
-1.84336e-19
-3.30137e-19
2.83494e-18
-1.52359e-18
-7.49652e-20
-1.86493e-18
1.26394e-18
-1.42194e-18
7.38932e-19
2.51192e-18
1.39001e-19
1.40615e-18
2.64358e-19
-1.86986e-18
1.7378e-18
1.17414e-18
1.46861e-20
-5.04285e-20
1.26233e-18
3.79607e-20
-6.81848e-19
-1.08418e-20
-1.12716e-20
-2.46713e-22
-6.17373e-23
-1.47256e-21
-1.12331e-20
2.55551e-20
-8.20025e-19
-9.3034e-19
-6.10367e-21
1.81886e-18
-1.8552e-18
1.86199e-18
-1.30604e-20
-4.23627e-20
3.90685e-18
6.1746e-20
-3.78079e-18
-2.1579e-19
7.64575e-18
7.67772e-18
3.15641e-20
-5.70594e-20
7.27385e-18
-7.08949e-18
3.36872e-19
-2.18732e-19
7.1276e-22
2.13164e-19
-6.73397e-18
-1.2428e-17
1.13762e-19
-4.27904e-19
8.66647e-19
9.79356e-18
8.72152e-21
8.94244e-18
7.16557e-18
-7.73521e-19
1.4207e-18
5.19905e-18
-5.69662e-18
-1.27139e-17
-5.06368e-18
3.26436e-18
3.19425e-18
-4.84031e-19
2.29082e-18
1.15347e-17
-2.88449e-18
-8.85142e-18
-4.04166e-18
4.0263e-19
6.97287e-19
1.46699e-17
1.43416e-17
-1.68963e-17
1.495e-18
3.50931e-17
-3.67814e-17
3.87799e-17
3.6439e-17
-8.04288e-19
9.53302e-22
-3.84434e-19
-3.42397e-17
-3.09024e-17
3.44298e-19
-1.21521e-19
5.20762e-17
-2.40482e-17
-2.22745e-17
-1.90282e-17
9.6568e-20
-3.09115e-17
-5.80459e-19
-1.15733e-20
1.65539e-19
1.8763e-19
-3.26513e-18
-4.07527e-19
5.31992e-19
-1.63947e-18
-6.88494e-19
-6.88193e-19
2.76454e-18
-3.30556e-18
-1.72384e-18
-1.35761e-18
-1.7017e-18
-3.11671e-19
2.26245e-18
-4.1414e-18
-1.8612e-19
-1.17125e-18
4.08517e-20
-1.3478e-18
-1.48233e-18
-3.27185e-20
2.76838e-21
-6.35099e-21
6.74027e-21
-1.26027e-20
-2.26475e-19
1.86464e-20
-9.48774e-19
9.50811e-19
-1.6923e-20
2.07396e-18
-2.07717e-18
-2.47248e-20
2.03343e-18
4.21107e-18
4.77356e-20
-4.28886e-18
4.27505e-18
-4.08164e-18
-4.44714e-18
-4.45305e-18
-8.46386e-18
-1.80487e-21
-8.05507e-18
-3.04344e-19
4.72532e-20
7.75916e-18
-5.36011e-20
2.92707e-19
1.48623e-17
7.25968e-18
1.35923e-17
2.16516e-19
-7.31147e-20
-1.97875e-19
-1.14051e-17
6.47926e-19
-1.0243e-18
-8.7837e-18
1.61143e-18
6.38829e-18
-2.38701e-18
4.46262e-19
4.97806e-18
1.10186e-19
-6.45057e-18
2.46365e-18
-1.09693e-20
-2.06476e-20
-6.72771e-19
1.20341e-18
9.49148e-18
-6.27359e-19
-1.4367e-21
-2.20012e-19
-1.5892e-17
-1.70078e-17
-1.71065e-17
8.87055e-19
-3.47678e-19
1.105e-19
-1.48876e-18
-7.95441e-17
1.1913e-18
2.11996e-19
3.80795e-17
3.63789e-17
3.31475e-17
2.28118e-19
-1.57141e-18
-2.6218e-17
-2.52109e-17
2.32773e-17
-5.82507e-19
-1.48204e-19
3.3335e-17
8.42781e-19
-5.85205e-19
1.54411e-19
-3.2717e-19
3.58721e-18
3.38075e-18
-4.47475e-19
4.25897e-18
-4.88781e-19
-5.5934e-19
-4.62893e-19
2.25379e-18
1.68747e-19
1.4778e-18
2.10001e-19
-1.92246e-18
-3.13412e-19
4.8393e-18
-2.44397e-18
2.62246e-18
-1.33782e-18
-1.04985e-19
3.14559e-18
4.64124e-20
8.54064e-19
2.87423e-20
-1.59493e-20
1.47424e-20
4.11313e-22
-1.34395e-20
1.07023e-18
1.46223e-22
-2.09585e-18
-2.26187e-18
-2.71442e-20
2.25355e-18
2.01529e-20
-4.49242e-18
-4.90768e-18
9.43864e-18
-4.74453e-18
4.77337e-18
-4.7133e-18
1.28903e-20
3.42333e-19
-5.943e-19
1.88247e-17
-1.70007e-20
2.83358e-19
-6.51878e-20
-8.88391e-18
-3.81823e-20
-1.65207e-17
6.6698e-19
1.50669e-17
-1.54269e-17
-1.43734e-17
5.63206e-19
8.47461e-20
-6.84213e-19
-2.11235e-17
1.39289e-18
-9.20597e-19
-8.52273e-18
-2.26132e-18
6.79122e-18
-3.85413e-18
3.25383e-18
1.29083e-18
-8.70371e-18
2.34897e-18
-2.1066e-18
-1.22891e-17
1.87191e-17
-1.57967e-18
5.53836e-18
-3.32121e-19
7.81968e-20
8.31879e-18
8.98596e-19
3.90727e-17
3.79554e-17
-4.20799e-17
1.64058e-18
4.25716e-17
3.4523e-19
4.19911e-17
-2.23179e-19
-4.08706e-19
-3.74105e-19
-3.69408e-17
7.93012e-19
6.83968e-21
1.14512e-18
2.64591e-17
-8.4912e-19
7.39147e-19
6.72782e-19
-6.57294e-19
4.91421e-19
-4.07188e-19
-2.03709e-19
-5.32785e-20
8.11163e-18
-2.67996e-18
3.30747e-20
-2.63084e-18
1.88171e-18
-1.36851e-18
-4.14561e-19
-2.47976e-20
5.84076e-22
-1.59276e-19
1.77004e-18
2.11053e-18
2.57392e-18
-2.58028e-18
2.68549e-18
-4.29921e-18
1.45397e-18
6.50479e-20
-1.70347e-18
-1.22134e-20
-9.84866e-19
8.73204e-21
-5.02906e-19
-2.7545e-21
-2.67627e-19
-6.30708e-21
2.06833e-20
1.10625e-18
2.38246e-18
2.50376e-20
1.08123e-19
-5.07825e-18
-4.9822e-18
-1.68354e-20
5.77413e-20
-5.19509e-18
1.05437e-20
-2.2013e-20
6.02636e-20
-3.25372e-19
3.20703e-19
3.54296e-19
-1.02432e-17
-5.68544e-19
3.86929e-19
-4.90422e-20
9.59582e-18
-4.87792e-20
9.92755e-20
-1.29039e-19
-1.72724e-17
1.6209e-17
-1.55824e-17
-1.33481e-17
-2.52965e-19
3.53435e-19
1.22973e-17
9.33879e-18
-9.72079e-18
2.18583e-18
4.87846e-18
-7.97732e-18
2.82358e-18
-2.91646e-18
-1.65371e-18
1.04105e-17
-1.78215e-18
-4.2651e-19
-9.72456e-19
-2.00861e-17
-9.56582e-18
-5.42629e-18
3.3236e-19
-2.68185e-19
-7.50307e-20
-1.06902e-18
-4.2069e-17
-4.0885e-17
4.52638e-17
-1.60482e-18
-4.44232e-17
9.05453e-17
-9.12407e-17
1.23948e-18
6.60377e-19
4.11042e-17
3.80545e-17
-1.10686e-19
1.16583e-18
3.06159e-17
8.38458e-19
-1.65012e-18
2.47362e-17
2.16664e-17
-1.90299e-17
-7.19867e-19
4.86538e-19
-3.94041e-19
6.499e-19
-8.64335e-18
-1.14131e-18
5.78772e-18
8.55484e-19
-4.76554e-19
2.16659e-18
3.79026e-19
-9.43822e-20
3.65729e-19
-3.54018e-18
-2.21504e-18
-1.06611e-22
-2.69976e-18
2.76071e-18
-3.02067e-18
3.16768e-18
1.08625e-19
-5.52193e-20
3.00443e-20
-6.10921e-20
3.44296e-20
1.36999e-20
5.3743e-19
-6.60723e-21
2.90557e-19
-1.17848e-18
-5.57522e-20
1.28575e-18
-8.27039e-20
8.15798e-20
-1.30679e-19
1.08865e-17
8.97051e-20
-5.54093e-18
5.35881e-18
5.80064e-18
6.18225e-21
1.7054e-19
1.11102e-17
-3.39119e-21
9.37501e-21
1.07571e-17
3.94012e-19
1.05326e-17
2.15707e-17
-2.08696e-17
2.04649e-17
-7.33747e-19
6.14947e-19
5.90255e-19
3.91156e-21
-1.01491e-18
1.75086e-17
1.54975e-17
-1.53873e-17
3.43581e-19
-1.20243e-19
1.21849e-18
1.94276e-17
-1.16015e-17
-5.76091e-18
-4.36491e-19
-9.80338e-19
1.37572e-17
7.82807e-18
-3.06947e-18
8.05505e-18
-1.27782e-17
1.77756e-17
4.01759e-19
2.40704e-17
-1.52689e-18
-1.00198e-20
2.36023e-21
-8.50316e-20
9.20646e-19
4.60531e-17
9.00081e-17
-4.9385e-17
7.25917e-19
2.08554e-19
3.0689e-19
4.70943e-17
-9.43593e-17
-4.41761e-17
-4.35868e-17
4.17934e-17
7.72443e-17
-3.68083e-17
-3.45149e-17
3.30966e-17
-8.61877e-19
-2.56377e-17
-4.55282e-17
-8.4175e-19
-7.68995e-19
1.60982e-17
2.53897e-19
-3.12664e-20
-4.63602e-19
8.42249e-18
-5.90407e-18
-7.76198e-19
-7.99267e-22
-2.76246e-20
-1.03826e-20
1.04519e-19
-3.50037e-19
4.02291e-18
2.63305e-19
-1.61873e-19
2.83474e-18
-3.08961e-18
3.25205e-18
4.80197e-20
-9.43359e-22
8.73064e-20
-2.07217e-18
-2.23407e-20
-1.1114e-20
1.13747e-18
2.81764e-21
-3.31078e-20
6.41664e-19
-4.94907e-20
1.4059e-20
-2.7112e-18
4.05828e-20
-8.85647e-20
1.96072e-19
-5.95062e-18
6.01684e-18
-1.12334e-19
-6.16701e-18
-5.86035e-18
1.89433e-19
-1.52899e-19
-4.46487e-20
3.77547e-19
-3.75966e-19
-5.01429e-19
3.35359e-19
-1.13186e-17
-5.61007e-20
2.24691e-17
-2.25572e-17
1.27921e-19
3.88735e-21
4.73954e-19
-2.06804e-17