/*--------------------------------*- C++ -*----------------------------------*\
| =========                 |                                                 |
| \\      /  F ield         | OpenFOAM: The Open Source CFD Toolbox           |
|  \\    /   O peration     | Version:  2006                                  |
|   \\  /    A nd           | Website:  www.openfoam.com                      |
|    \\/     M anipulation  |                                                 |
\*---------------------------------------------------------------------------*/
FoamFile
{
    version     2.0;
    format      ascii;
    class       volScalarField;
    location    "20000";
    object      I1_33;
}
// * * * * * * * * * * * * * * * * * * * * * * * * * * * * * * * * * * * * * //

dimensions      [0 0 0 0 0 0 0];


internalField   nonuniform List<scalar> 
14751
(
4.78845e-07
4.8534e-07
4.92611e-07
4.9134e-07
4.87857e-07
4.77614e-07
4.62329e-07
4.43425e-07
4.20838e-07
3.96003e-07
3.69642e-07
3.42471e-07
3.15075e-07
2.88404e-07
2.62907e-07
2.38916e-07
2.16654e-07
1.96144e-07
1.77536e-07
1.60808e-07
1.45934e-07
1.3271e-07
1.20869e-07
1.10273e-07
1.00858e-07
9.24767e-08
8.50431e-08
7.84447e-08
7.25988e-08
6.7415e-08
6.28232e-08
5.87524e-08
5.51441e-08
5.19494e-08
4.91143e-08
4.66142e-08
4.44142e-08
4.24713e-08
4.07591e-08
3.92713e-08
3.79936e-08
3.688e-08
3.59169e-08
3.50911e-08
3.43864e-08
3.38164e-08
3.33748e-08
3.30578e-08
3.28614e-08
3.27882e-08
3.28354e-08
3.30001e-08
3.32789e-08
3.36858e-08
3.42211e-08
3.48913e-08
3.56997e-08
3.66579e-08
3.77708e-08
3.90346e-08
4.04527e-08
4.20461e-08
4.38215e-08
4.58299e-08
4.80831e-08
5.05819e-08
5.3346e-08
5.64235e-08
5.98531e-08
6.3652e-08
6.78464e-08
7.24323e-08
7.74205e-08
8.28287e-08
8.86911e-08
9.50967e-08
1.02061e-07
1.09637e-07
1.17884e-07
1.2677e-07
1.36404e-07
1.46827e-07
1.58217e-07
1.70513e-07
1.83866e-07
1.98403e-07
2.14179e-07
2.31249e-07
2.49555e-07
2.69175e-07
2.89998e-07
3.11763e-07
3.34701e-07
3.579e-07
3.81026e-07
4.04216e-07
4.25072e-07
4.43431e-07
4.63357e-07
0.00134786
0.00135778
0.00136962
0.00136552
0.00135542
0.00133154
0.00129392
0.00124709
0.00119129
0.00112927
0.00106283
0.000993815
0.000923487
0.000854363
0.000787738
0.000724402
0.00066512
0.00060993
0.000559434
0.000513743
0.000473056
0.000436967
0.000404328
0.000374703
0.00034804
0.000324052
0.000302519
0.000283221
0.000265951
0.000250513
0.000236715
0.000224419
0.000213448
0.000203692
0.000195013
0.000187351
0.000180633
0.000174723
0.000169549
0.000165119
0.000161392
0.000158227
0.000155546
0.000153333
0.000151535
0.00015022
0.000149379
0.000149008
0.000149098
0.000149677
0.000150734
0.00015224
0.000154201
0.000156671
0.000159662
0.000163208
0.000167314
0.000172024
0.00017735
0.000183264
0.000189774
0.000196953
0.000204842
0.000213626
0.000223363
0.000234013
0.00024565
0.000258445
0.000272577
0.000288125
0.000305218
0.000323739
0.000343535
0.000364608
0.00038703
0.000411017
0.000436633
0.000463832
0.000492784
0.00052307
0.000555086
0.000588707
0.000624374
0.00066172
0.000700953
0.000742424
0.000785943
0.000831405
0.000878466
0.000926712
0.00097592
0.00102512
0.00107409
0.001122
0.00116609
0.00120923
0.00124561
0.00128029
0.00131366
0.598327
0.599851
0.604818
0.608223
0.611669
0.613301
0.609343
0.602428
0.591964
0.578675
0.562949
0.545214
0.525752
0.505366
0.484634
0.463766
0.443264
0.423174
0.40399
0.385992
0.369743
0.355432
0.342044
0.329265
0.317344
0.306197
0.295856
0.286283
0.277479
0.269413
0.262053
0.255366
0.24933
0.243901
0.239072
0.234819
0.231162
0.228014
0.225364
0.223246
0.221659
0.220496
0.219695
0.219266
0.219173
0.219501
0.220247
0.221441
0.223081
0.225193
0.227721
0.230611
0.233947
0.237756
0.242062
0.246871
0.252187
0.258025
0.264357
0.271135
0.278308
0.285936
0.294027
0.302691
0.311932
0.32165
0.331852
0.342599
0.354062
0.366301
0.379506
0.393296
0.407207
0.421153
0.435029
0.448876
0.462706
0.476137
0.489336
0.501735
0.513702
0.524822
0.535435
0.545182
0.554095
0.562502
0.570126
0.576901
0.582755
0.587315
0.590908
0.592995
0.593579
0.593547
0.591221
0.589764
0.587151
0.587257
0.588427
35.5951
35.4843
35.6878
36.0243
36.5144
37.1377
37.604
38.0152
38.2747
38.4363
38.5176
38.5467
38.5087
38.4212
38.2999
38.1396
37.9625
37.7541
37.5371
37.3325
37.2011
37.2305
37.2725
37.2929
37.3114
37.3253
37.3412
37.3596
37.3843
37.4191
37.4642
37.5212
37.5917
37.6774
37.784
37.9073
38.058
38.2281
38.4218
38.6442
38.8919
39.1636
39.4487
39.7592
40.0811
40.4296
40.8026
41.2042
41.6303
42.0768
42.5183
42.9813
43.463
43.9718
44.5007
45.0509
45.6174
46.1996
46.7895
47.3861
47.969
48.5458
49.1122
49.6698
50.2144
50.7378
51.2302
51.6898
52.1378
52.5946
53.1151
53.6376
54.0857
54.4477
54.7085
54.8701
54.9438
54.8888
54.7289
54.4221
54.0119
53.4591
52.8052
52.0303
51.1465
50.1916
49.159
48.0547
46.8907
45.6536
44.4019
43.0869
41.7264
40.4369
39.0751
37.9187
36.8131
35.9944
35.3883
285.259
282.979
283.034
284.65
287.801
292.825
297.792
303.421
309.226
314.573
319.767
325.202
330.949
336.937
343.193
349.617
356.227
362.803
369.421
376.074
383.014
391.818
400.783
409.513
418.122
426.559
434.818
442.887
450.815
458.581
466.129
473.548
480.771
487.857
494.795
501.596
508.27
514.779
521.206
527.533
533.709
539.728
545.539
551.21
556.69
561.97
567.031
571.836
576.245
580.021
583.55
586.792
589.705
592.378
594.701
596.726
598.349
599.598
600.434
600.857
600.672
600.031
598.874
597.154
594.913
592.06
588.635
584.575
579.998
575.219
571.161
567.495
563.236
558.315
552.725
546.418
539.594
531.906
523.596
514.4
504.694
494.106
482.932
471.055
458.571
445.632
432.365
418.815
405.145
391.3
377.756
364.141
350.499
337.83
324.882
313.678
302.847
293.602
286.202
546.383
541.046
538.973
539.496
542.588
549.456
557.654
568.013
580.171
593.686
608.08
622.531
638.194
655.007
673.133
692.17
712.048
732.393
752.986
773.296
792.185
807.612
823.139
838.453
853.78
869.049
884.191
899.124
913.85
928.435
942.654
956.666
970.472
983.972
997.218
1010.2
1022.8
1035.15
1047.05
1058.79
1069.99
1080.77
1091.2
1100.97
1110.38
1119.08
1126.94
1133.67
1139.6
1144.73
1149.25
1152.95
1155.95
1158.03
1159.31
1159.77
1159.42
1158.15
1155.99
1152.98
1149.14
1144.43
1138.85
1132.54
1125.42
1117.49
1108.7
1099.06
1088.44
1076.31
1061.79
1045.87
1029.58
1012.89
995.862
978.595
961.187
943.424
925.367
906.476
887.452
867.826
847.915
827.777
807.087
786.151
764.946
743.858
723.019
702.39
682.485
663.298
644.597
627.173
610.222
594.81
579.962
564.952
550.556
444.004
437.218
430.923
425.049
419.801
416.705
415.308
415.687
417.923
421.809
427.235
433.947
441.031
448.828
457.447
466.878
476.913
487.365
497.935
508.022
516.771
520.814
524.925
529.533
534.384
539.525
544.897
550.52
556.191
561.981
567.91
573.851
579.827
585.798
591.748
597.616
603.435
609.136
614.654
620.004
625.154
630.108
634.847
639.092
643.009
646.354
649.278
651.898
654.171
656.234
657.66
658.754
659.388
659.44
659.065
658.238
656.958
655.279
653.091
650.546
647.78
644.67
641.286
637.793
634.037
630.168
626.141
621.814
617.184
611.532
603.388
593.603
584.176
575.05
566.198
557.758
549.66
541.919
534.534
527.303
520.348
513.887
507.758
502.168
496.801
491.89
487.266
483.026
479.178
475.807
473.061
471.07
469.562
468.435
467.42
466.054
464.011
459.617
450.109
167.567
164.172
159.592
154.312
148.532
143.283
139.016
135.554
133.113
131.621
130.979
131.058
131.793
132.877
134.157
135.741
137.563
139.592
141.688
143.693
145.439
146.775
148.199
149.769
151.449
153.19
154.937
156.761
158.564
160.352
162.122
163.824
165.485
167.079
168.542
169.929
171.121
172.233
173.207
173.967
174.555
174.936
175.066
174.945
174.575
174.005
173.33
172.476
171.398
170.123
168.654
166.945
165.039
162.924
160.649
158.203
155.575
152.884
150.073
147.166
144.251
141.328
138.399
135.53
132.718
129.966
127.309
124.727
122.159
119.557
116.866
114.234
111.88
109.813
108.048
106.575
105.384
104.487
103.996
104.026
104.478
105.45
106.805
108.651
110.928
113.621
116.775
120.323
124.346
128.87
133.857
139.5
145.584
151.861
158.242
163.954
168.98
171.748
170.792
22.0102
22.2382
21.9641
21.4289
20.6706
19.9095
19.3988
19.0252
18.8788
18.9445
19.1879
19.5869
20.1283
20.7676
21.4811
22.2141
22.9612
23.7284
24.4678
25.1597
25.7471
26.2231
26.6948
27.164
27.6159
28.0602
28.4664
28.8477
29.1837
29.4748
29.7225
29.912
30.0433
30.0992
30.1019
30.0164
29.8575
29.6232
29.3112
28.9046
28.4021
27.8069
27.1304
26.3961
25.6019
24.7606
23.8493
22.9001
21.8958
20.8531
19.7818
18.6732
17.545
16.4144
15.2752
14.148
13.0423
11.9586
10.9128
9.91043
8.95719
8.06129
7.22482
6.4469
5.73706
5.09
4.49371
3.96044
3.47069
3.01703
2.60384
2.24427
1.93545
1.67866
1.47633
1.31237
1.19266
1.12672
1.10192
1.12773
1.19315
1.31484
1.49481
1.74355
2.07676
2.50556
3.04981
3.72819
4.56528
5.59174
6.82626
8.32418
10.0854
12.067
14.2894
16.5392
18.824
20.7442
21.9319
0.0311311
0.000875349
0.00227652
0.0142622
0.0275237
0.0394785
0.0586474
0.0821957
0.115109
0.159861
0.21741
0.288472
0.373301
0.470014
0.576012
0.68912
0.804663
0.917231
1.02254
1.11518
1.18888
1.2438
1.29114
1.33216
1.36149
1.38062
1.3899
1.38444
1.36728
1.33632
1.29118
1.2363
1.16492
1.08249
0.991151
0.889163
0.782199
0.668166
0.551866
0.436819
0.327739
0.227198
0.140797
0.0714128
0.0234344
0.000725639
0.00675164
0.0452771
0.120542
0.234674
0.393319
0.595307
0.846564
1.14428
1.4915
1.88585
2.32369
2.80964
3.33249
3.89037
4.47843
5.09054
5.71863
6.35704
7.00788
7.65333
8.29642
8.93446
9.57365
10.2056
10.8302
11.4222
11.9834
12.4748
12.8876
13.2068
13.43
13.5417
13.5382
13.4042
13.1542
12.79
12.3042
11.7048
10.9972
10.197
9.31866
8.37122
7.37466
6.33962
5.30501
4.27956
3.2969
2.41115
1.63005
1.01198
0.540422
0.236994
0.0784269
6.53767
5.6244
4.97421
4.43455
4.00678
3.67312
3.3557
3.08009
2.8273
2.59061
2.37408
2.17729
1.99914
1.84047
1.70318
1.58549
1.48936
1.41218
1.35599
1.32183
1.30913
1.31327
1.32954
1.35578
1.39724
1.4509
1.5181
1.60233
1.70167
1.82045
1.958
2.12046
2.3047
2.51261
2.75415
3.02282
3.32753
3.66805
4.0465
4.46638
4.92894
5.43046
5.98217
6.5771
7.21313
7.89872
8.62474
9.40296
10.2168
11.0749
11.9762
12.9055
13.8702
14.8639
15.8699
16.8955
17.917
18.946
19.9666
20.9697
21.9411
22.8874
23.8102
24.6766
25.515
26.2997
27.0418
27.7456
28.4186
29.0484
29.6408
30.1921
30.6456
30.9813
31.2308
31.3596
31.3883
31.2948
31.0816
30.7525
30.3048
29.7267
29.0371
28.2219
27.2741
26.2239
25.0574
23.7885
22.4265
20.9744
19.46
17.8815
16.2486
14.6183
12.9705
11.4029
9.88273
8.48366
7.26923
12.4408
11.2038
10.26
9.44219
8.76542
8.23245
7.75444
7.35314
7.00962
6.70916
6.44977
6.23016
6.04537
5.89622
5.78409
5.70341
5.65943
5.65117
5.67641
5.73947
5.8363
5.96316
6.11817
6.29667
6.50439
6.73839
7.0011
7.29262
7.61676
7.97602
8.36645
8.79769
9.26096
9.76554
10.3122
10.8988
11.5271
12.1992
12.9141
13.6692
14.4679
15.2945
16.1564
17.054
17.98
18.9261
19.9054
20.8928
21.893
22.8992
23.9043
24.9078
25.8957
26.8707
27.8148
28.7212
29.5967
30.4179
31.1967
31.922
32.5905
33.1979
33.7433
34.2387
34.6661
35.0466
35.3829
35.6659
35.9048
36.1248
36.3006
36.4326
36.4498
36.4009
36.2876
36.0965
35.845
35.5143
35.1255
34.6634
34.1425
33.547
32.872
32.1307
31.3021
30.4094
29.4362
28.3885
27.2806
26.098
24.8678
23.5735
22.2044
20.7976
19.3285
17.8569
16.3519
14.8435
13.4093
14.3456
13.2241
12.3506
11.5791
10.9408
10.4474
10.0259
9.69116
9.42475
9.21819
9.06065
8.94828
8.87924
8.85382
8.86767
8.91922
9.01178
9.14266
9.31361
9.52367
9.76829
10.0449
10.3531
10.6882
11.0506
11.4482
11.878
12.3374
12.8296
13.3541
13.9147
14.5028
15.129
15.7937
16.4843
17.207
17.958
18.7387
19.5454
20.3686
21.2064
22.0656
22.9169
23.7749
24.6388
25.4898
26.3299
27.1516
27.9454
28.715
29.4418
30.1459
30.7915
31.3843
31.9266
32.4147
32.845
33.206
33.4986
33.7374
33.9246
34.0456
34.1093
34.1269
34.0989
34.034
33.938
33.8112
33.671
33.5084
33.3279
33.0923
32.8122
32.5044
32.1625
31.8013
31.4124
31.0116
30.5838
30.1318
29.6713
29.1803
28.6633
28.1219
27.5413
26.9239
26.2815
25.6017
24.8868
24.1349
23.3509
22.5296
21.6432
20.7235
19.7268
18.6852
17.5766
16.3899
15.1776
13.789
12.9562
12.2967
11.7184
11.2516
10.9011
10.6242
10.4316
10.3042
10.2316
10.2074
10.2292
10.3018
10.4056
10.5487
10.73
10.9484
11.1986
11.4893
11.8102
12.1612
12.542
12.9448
13.377
13.8325
14.313
14.8169
15.3531
15.9039
16.4854
17.0841
17.7087
18.3495
19.0094
19.681
20.3661
21.0603
21.765
22.4538
23.1494
23.8303
24.5029
25.1556
25.7801
26.3787
26.9495
27.4727
27.9573
28.3991
28.7975
29.1346
29.4258
29.6559
29.8261
29.9334
29.9922
29.9951
29.9417
29.8302
29.6727
29.4745
29.2417
28.9794
28.6742
28.3651
28.0269
27.685
27.3377
26.993
26.6415
26.2971
25.9031
25.5234
25.1441
24.7702
24.3903
24.0203
23.6705
23.3219
22.9753
22.6382
22.31
21.9848
21.6612
21.3354
20.995
20.6506
20.294
19.9292
19.5509
19.1596
18.7507
18.2979
17.8225
17.2764
16.6753
16.0003
15.2227
14.3639
12.1866
11.6676
11.2322
10.8717
10.5792
10.39
10.2664
10.2119
10.212
10.2592
10.3531
10.4858
10.6547
10.8582
11.0927
11.3556
11.6531
11.9701
12.319
12.6929
13.0846
13.493
13.9249
14.3765
14.8432
15.3222
15.8184
16.3241
16.8419
17.3704
17.9139
18.4527
18.999
19.5395
20.081
20.6162
21.1369
21.649
22.1358
22.6035
23.043
23.4446
23.8148
24.1523
24.4454
24.6873
24.8921
25.0489
25.1493
25.2104
25.2119
25.1618
25.0677
24.9288
24.7361
24.499
24.2245
23.9188
23.5838
23.2264
22.8372
22.4344
22.0232
21.6121
21.1919
20.7769
20.3741
19.9751
19.5868
19.2242
18.8469
18.4754
18.132
17.7949
17.4784
17.1816
16.9124
16.654
16.4286
16.2121
16.0149
15.8441
15.6831
15.5312
15.3976
15.265
15.1488
15.0236
14.9119
14.7979
14.6857
14.5705
14.4368
14.2641
14.0573
13.7946
13.4753
13.0463
12.52
10.314
10.0426
9.7992
9.61996
9.48107
9.42388
9.4193
9.46398
9.55874
9.68909
9.85719
10.057
10.2757
10.5271
10.8009
11.0987
11.4151
11.7507
12.1012
12.4584
12.8355
13.2153
13.6172
14.0127
14.4237
14.8351
15.2543
15.6692
16.0834
16.4949
16.9062
17.3028
17.6923
18.066
18.4319
18.7674
19.0838
19.3691
19.6347
19.8646
20.0571
20.2141
20.3306
20.4097
20.4487
20.4403
20.3969
20.3072
20.1758
20.01
19.8043
19.5567
19.2769
18.9707
18.6384
18.2744
17.8919
17.4998
17.0964
16.683
16.2649
15.8493
15.4411
15.0414
14.6472
14.2664
13.902
13.5645
13.2408
12.9245
12.6149
12.3398
12.0745
11.8328
11.6111
11.4144
11.2466
11.0916
10.9653
10.8697
10.7829
10.7217
10.6777
10.6535
10.6397
10.6419
10.6582
10.6929
10.7298
10.782
10.8418
10.8984
10.9601
10.9927
11.0074
10.9714
10.8976
10.7182
10.4516
8.50847
8.40745
8.31156
8.2624
8.2358
8.26643
8.33992
8.44505
8.5914
8.76463
8.96112
9.18047
9.41985
9.6726
9.94178
10.2237
10.512
10.8133
11.121
11.426
11.7388
12.0557
12.374
12.6825
12.9965
13.3059
13.6001
13.8918
14.1817
14.4526
14.7096
14.9531
15.1768
15.3801
15.5626
15.7167
15.8483
15.9505
16.0228
16.0583
16.0623
16.0356
15.9774
15.8879
15.7605
15.6024
15.4137
15.1947
14.9524
14.6751
14.3821
14.0725
13.7368
13.3863
13.0331
12.6618
12.2941
11.9245
11.5537
11.1815
10.8231
10.4734
10.1361
9.81029
9.50074
9.21011
8.93306
8.67746
8.44177
8.21023
7.99768
7.81144
7.63408
7.4851
7.35246
7.24417
7.14824
7.08257
7.02887
7.00115
6.99305
7.00004
7.02587
7.06761
7.12804
7.20438
7.2962
7.40394
7.52199
7.65843
7.80766
7.96079
8.12237
8.28053
8.41959
8.53016
8.60127
8.59342
8.50831
6.88507
6.90356
6.90238
6.93207
6.97168
7.0592
7.16757
7.30316
7.46451
7.64417
7.84118
8.04641
8.26746
8.49081
8.7239
8.95368
9.1926
9.42737
9.66081
9.89552
10.124
10.349
10.5669
10.7785
10.9761
11.1714
11.3548
11.5208
11.6764
11.8158
11.9388
12.0409
12.1321
12.1962
12.232
12.2511
12.2485
12.2169
12.1629
12.0803
11.9756
11.8485
11.6945
11.5132
11.3167
11.0995
10.8527
10.6026
10.3336
10.0481
9.75583
9.45725
9.15227
8.84247
8.53254
8.2223
7.92055
7.62334
7.33035
7.04914
6.77919
6.52011
6.27113
6.04253
5.82244
5.62343
5.43803
5.26502
5.10456
4.9584
4.82801
4.71114
4.61046
4.52581
4.45932
4.40579
4.36748
4.34727
4.34486
4.35209
4.38074
4.42483
4.48269
4.55721
4.64648
4.7534
4.87595
5.0077
5.16179
5.332
5.51147
5.71044
5.91246
6.12689
6.32544
6.51324
6.66923
6.76547
6.80127
5.47177
5.56246
5.60911
5.68407
5.76365
5.87154
5.99157
6.12681
6.2816
6.44449
6.6116
6.78634
6.96183
7.13912
7.31088
7.48324
7.65817
7.82318
7.97636
8.12918
8.27042
8.40657
8.52989
8.6458
8.74704
8.8351
8.9203
8.98342
9.03484
9.07515
9.09531
9.09982
9.0887
9.06233
9.01545
8.94927
8.86797
8.7628
8.64772
8.50928
8.35711
8.19164
8.01339
7.81455
7.60807
7.39507
7.16742
6.93455
6.69646
6.45424
6.21131
5.96546
5.7262
5.48771
5.25037
5.02316
4.80308
4.58721
4.38101
4.18659
4.00095
3.8283
3.66596
3.51311
3.37607
3.24696
3.1301
3.02426
2.92918
2.84243
2.76859
2.70455
2.65223
2.61306
2.58357
2.56345
2.55843
2.56099
2.58077
2.61042
2.64858
2.70324
2.77143
2.85368
2.9447
3.05368
3.17459
3.31054
3.46493
3.63545
3.81792
4.02151
4.23328
4.45222
4.67728
4.89031
5.09014
5.24196
5.34129
4.26183
4.38929
4.46314
4.55661
4.6497
4.75262
4.86586
4.98394
5.11255
5.24404
5.37124
5.50564
5.63169
5.7513
5.86913
5.9792
6.08248
6.17973
6.26216
6.33969
6.40992
6.46727
6.51627
6.55476
6.58367
6.60035
6.60579
6.60424
6.58836
6.55839
6.51919
6.46647
6.40078
6.32267
6.23592
6.13684
6.02584
5.90375
5.7671
5.62359
5.47345
5.31079
5.1456
4.97535
4.79734
4.61807
4.43821
4.25515
4.06984
3.8896
3.7103
3.53226
3.35997
3.19345
3.03263
2.87978
2.73236
2.59027
2.45874
2.33397
2.21872
2.11097
2.01181
1.91917
1.83717
1.76201
1.6934
1.6335
1.57999
1.53433
1.49578
1.46407
1.44142
1.42547
1.41614
1.41569
1.42237
1.43816
1.46125
1.49444
1.53558
1.58669
1.6499
1.72038
1.80437
1.90044
2.00775
2.13056
2.2664
2.41794
2.58786
2.77285
2.96937
3.17809
3.39338
3.60924
3.81437
3.99076
4.11754
3.24873
3.38383
3.46886
3.56023
3.64804
3.73682
3.83079
3.9279
4.02125
4.11392
4.20513
4.29227
4.36907
4.4393
4.50483
4.56281
4.60785
4.64481
4.67864
4.69808
4.71166
4.71404
4.70973
4.69998
4.6793
4.65515
4.61518
4.57297
4.52255
4.46129
4.39285
4.32012
4.23505
4.14614
4.04822
3.94737
3.83822
3.72391
3.6046
3.48351
3.3582
3.22701
3.09492
2.96426
2.83132
2.69829
2.56763
2.43746
2.30998
2.18701
2.06836
1.95102
1.83967
1.73288
1.63156
1.5358
1.44409
1.35965
1.28117
1.20812
1.14133
1.07851
1.02206
0.971701
0.925158
0.884059
0.8478
0.816499
0.78825
0.765507
0.747964
0.734644
0.726416
0.721955
0.723126
0.728779
0.739157
0.756417
0.777564
0.805642
0.841339
0.882894
0.931742
0.990378
1.05792
1.13439
1.22174
1.32221
1.43471
1.56016
1.70254
1.85947
2.02938
2.21525
2.40678
2.60307
2.79807
2.97103
3.10632
2.41134
2.53705
2.6164
2.70121
2.77203
2.84408
2.91505
2.9828
3.04654
3.10413
3.16034
3.20469
3.24301
3.27587
3.29871
3.31553
3.32214
3.31965
3.31478
3.30127
3.27808
3.25126
3.21733
3.1818
3.1385
3.08804
3.03542
2.9768
2.91489
2.84789
2.77772
2.70302
2.62599
2.54478
2.46171
2.37313
2.28327
2.1939
2.10373
2.01091
1.91606
1.82418
1.7322
1.6405
1.55054
1.46246
1.37649
1.29265
1.21314
1.135
1.06205
0.992226
0.92563
0.862899
0.803973
0.748628
0.697476
0.650821
0.607214
0.5676
0.531189
0.497826
0.468274
0.442215
0.418503
0.397869
0.380176
0.364851
0.352008
0.341987
0.334542
0.330059
0.328121
0.328775
0.332218
0.338763
0.348326
0.36148
0.378111
0.398981
0.424606
0.45465
0.490479
0.533091
0.582065
0.638827
0.70501
0.780496
0.867171
0.965342
1.07615
1.20271
1.34221
1.49462
1.65812
1.82574
1.99818
2.15247
2.2806
1.73123
1.83766
1.90751
1.97615
2.03155
2.08485
2.13288
2.17329
2.21212
2.24355
2.26955
2.28387
2.29531
2.30036
2.29574
2.28447
2.26774
2.24613
2.21725
2.18436
2.15034
2.11042
2.06753
2.02229
1.97188
1.92031
1.86792
1.81336
1.75523
1.69572
1.63633
1.57416
1.51372
1.44962
1.38633
1.32341
1.25906
1.1955
1.13195
1.06945
1.00724
0.948105
0.888655
0.831496
0.775849
0.722634
0.671699
0.6231
0.576804
0.532758
0.490566
0.452441
0.416031
0.382056
0.351254
0.32264
0.296416
0.272219
0.250423
0.230627
0.212919
0.197372
0.183169
0.170808
0.159995
0.150602
0.14286
0.136126
0.131103
0.127341
0.124736
0.123648
0.123796
0.125457
0.128635
0.133415
0.139923
0.148389
0.159203
0.17247
0.188562
0.208178
0.231569
0.259348
0.292258
0.331091
0.376732
0.429676
0.491617
0.563178
0.645368
0.741074
0.847908
0.967603
1.09778
1.23518
1.37651
1.50833
1.62126
1.19307
1.27768
1.33428
1.38551
1.42523
1.46061
1.49139
1.51264
1.53076
1.54301
1.54639
1.54552
1.53939
1.5271
1.50806
1.4843
1.45832
1.42788
1.39409
1.35781
1.31882
1.28024
1.23875
1.19631
1.15215
1.10994
1.06558
1.02137
0.976465
0.932875
0.887982
0.844557
0.800107
0.757231
0.714321
0.673012
0.631776
0.590931
0.551678
0.51403
0.477461
0.442027
0.407723
0.375109
0.344568
0.315227
0.287793
0.261961
0.237932
0.215369
0.194255
0.175247
0.15771
0.141432
0.126896
0.11374
0.101755
0.0910036
0.0815002
0.0730225
0.0655994
0.0591047
0.0534549
0.0485205
0.044362
0.0407882
0.0379054
0.0355713
0.0338321
0.0326896
0.0320778
0.031983
0.0324686
0.0336289
0.0353989
0.0378985
0.0413519
0.0457013
0.0513025
0.0583051
0.0669907
0.077796
0.0909236
0.107077
0.126718
0.15035
0.178683
0.21299
0.253452
0.301761
0.359148
0.42592
0.50404
0.591672
0.689615
0.795256
0.906229
1.01332
1.10451
0.780516
0.845654
0.888187
0.924393
0.949837
0.971359
0.986801
0.99479
1.00019
0.99915
0.993889
0.984557
0.969469
0.950233
0.92766
0.902204
0.874485
0.845319
0.814199
0.782159
0.748636
0.716022
0.683013
0.650458
0.618119
0.58609
0.554518
0.523461
0.493021
0.463839
0.434743
0.406919
0.379341
0.352998
0.32779
0.302675
0.279045
0.256609
0.234951
0.214199
0.194814
0.176263
0.158865
0.142701
0.127621
0.113395
0.10046
0.0885029
0.0776004
0.0676971
0.0588183
0.0507502
0.0435703
0.0372253
0.03159
0.0266604
0.0224025
0.0186929
0.0155252
0.0128247
0.0105546
0.00865015
0.00708293
0.00580412
0.00476982
0.00395107
0.00331592
0.00285815
0.00253952
0.00235082
0.00227497
0.00231696
0.00248707
0.0028012
0.00329081
0.00401123
0.00502827
0.00641824
0.00830659
0.0108599
0.0142275
0.018666
0.0244897
0.0319479
0.0416336
0.0538402
0.0692523
0.0886082
0.11244
0.142095
0.178408
0.221748
0.27393
0.334634
0.403781
0.480245
0.562316
0.642636
0.712634
0.476105
0.524016
0.553568
0.577673
0.593405
0.604267
0.609777
0.61133
0.608865
0.602721
0.593772
0.580795
0.564843
0.546517
0.526152
0.504336
0.480855
0.457435
0.433324
0.409021
0.385812
0.362031
0.339382
0.317101
0.296031
0.275174
0.255628
0.236407
0.218734
0.201177
0.184539
0.168867
0.15403
0.13984
0.126492
0.113942
0.102039
0.0910363
0.0807526
0.0710101
0.0621934
0.0540436
0.0465696
0.0398294
0.0336851
0.0282127
0.023309
0.0190022
0.0152356
0.0120103
0.00927055
0.00694775
0.00503347
0.00349971
0.00228922
0.00137949
0.000727257
0.000302222
6.9442e-05
-1.3737e-06
5.87604e-05
0.000222084
0.0004594
0.000749433
0.00106671
0.00138746
0.00168857
0.00193989
0.00213787
0.00225328
0.00229241
0.00224575
0.00210589
0.00187721
0.00157382
0.00121289
0.000822415
0.000448361
0.000146353
-2.24367e-06
0.000109565
0.00062183
0.00171182
0.00361308
0.00659653
0.0110373
0.0173486
0.025974
0.03767
0.0530886
0.0729468
0.0983918
0.129845
0.168188
0.2135
0.264734
0.321289
0.377644
0.428798
0.26407
0.296119
0.315364
0.330609
0.339102
0.343888
0.344953
0.342953
0.338313
0.330911
0.321033
0.309682
0.296797
0.282243
0.267547
0.251803
0.235486
0.219457
0.203451
0.188167
0.173282
0.159174
0.145652
0.132676
0.120594
0.109254
0.0986373
0.0885908
0.0793578
0.0706637
0.0627017
0.0552393
0.0484309
0.0420975
0.0362916
0.0310374
0.0262625
0.0219088
0.0180423
0.014627
0.011618
0.00898408
0.00676308
0.00488372
0.00334779
0.00213751
0.0012182
0.00057055
0.000174624
5.19996e-06
4.03476e-05
0.000256945
0.000632324
0.00114571
0.00177621
0.00250469
0.00329867
0.00416843
0.0050698
0.00599196
0.00691602
0.00783472
0.00873673
0.00959699
0.0104024
0.0111477
0.0117476
0.0122504
0.0126349
0.0128865
0.0129942
0.012947
0.012727
0.012362
0.0117829
0.0110238
0.0101267
0.00903018
0.00781222
0.00646092
0.00502295
0.00358311
0.00220781
0.00104104
0.000235272
1.09101e-05
0.000646359
0.0024879
0.00597447
0.0116203
0.0200538
0.0320245
0.0482207
0.069222
0.0954776
0.126603
0.162293
0.199391
0.233133
0.126756
0.146077
0.157896
0.1662
0.170366
0.172077
0.171275
0.168069
0.163638
0.157759
0.150821
0.142803
0.134111
0.125121
0.115655
0.106247
0.0968972
0.0878054
0.0790396
0.0708516
0.0630601
0.0558509
0.0491988
0.0430738
0.0375085
0.0324235
0.0277436
0.0236097
0.0198504
0.0165127
0.0135632
0.010933
0.00863004
0.00664944
0.00496537
0.00354508
0.00238752
0.00147718
0.000793885
0.000328177
6.40725e-05
-1.11719e-05
8.79951e-05
0.000348742
0.000755277
0.0012946
0.00195199
0.00272721
0.00358067
0.00452702
0.00552958
0.00659379
0.00770552
0.00886143
0.0100234
0.0112009
0.0123851
0.0135574
0.0147458
0.0159082
0.0170336
0.0181045
0.0191579
0.0201318
0.0210626
0.0219393
0.0226076
0.023185
0.0237038
0.0240683
0.0243546
0.0243926
0.0243309
0.0240952
0.023624
0.0230533
0.0222151
0.0211887
0.0199264
0.0184458
0.0167136
0.0147704
0.0125842
0.0102883
0.00792421
0.00554121
0.00333624
0.00149775
0.000288448
5.73624e-05
0.00123777
0.004357
0.0100086
0.0187821
0.0310835
0.0470977
0.0665396
0.0880236
0.108304
0.0467811
0.057046
0.0632768
0.0673373
0.0690727
0.0692328
0.0679659
0.0657465
0.0628889
0.0593441
0.0554667
0.0511419
0.0467107
0.0422026
0.0376222
0.0332096
0.0290672
0.0251077
0.02146
0.018119
0.0151279
0.0124342
0.0100699
0.00802402
0.00624862
0.00473182
0.00346445
0.00242213
0.00158628
0.00094062
0.000470533
0.000164209
8.03177e-06
-8.07517e-06
0.000106125
0.000341114
0.000687166
0.00113974
0.00168501
0.00232245
0.00303674
0.00383239
0.00467719
0.0055885
0.00655181
0.00755939
0.00859832
0.00968359
0.0107669
0.011882
0.0130245
0.0141907
0.0153431
0.0165098
0.0176382
0.0187634
0.0199228
0.0210244
0.0220986
0.0231938
0.0242536
0.0252636
0.0262877
0.0271732
0.0280507
0.0288422
0.0296317
0.0303118
0.0308642
0.0313612
0.0317855
0.03204
0.0322159
0.0322641
0.0321827
0.0320399
0.0316335
0.0310382
0.0302879
0.0292087
0.027996
0.0264741
0.0246815
0.0225538
0.02015
0.0174062
0.0144572
0.0113174
0.00817416
0.00517006
0.00255765
0.000690492
-7.71739e-06
0.000947302
0.00402296
0.00952627
0.017472
0.0273513
0.0375553
0.00899202
0.0129459
0.0154823
0.0169786
0.0175011
0.0173145
0.0166214
0.0155943
0.0143706
0.0129806
0.0115243
0.0100894
0.00863754
0.00723556
0.00594673
0.00474731
0.00368102
0.00274435
0.00195877
0.00130857
0.000798697
0.000423153
0.000169419
2.84399e-05
-8.68846e-06
4.86595e-05
0.000192076
0.000413967
0.000707784
0.00106965
0.00148956
0.00197474
0.00250737
0.00309462
0.00371449
0.00439677
0.00511119
0.00585483
0.00664627
0.00747298
0.0083116
0.00919614
0.0100539
0.0109542
0.0118891
0.0128065
0.0137566
0.0147023
0.0156795
0.0166003
0.0175419
0.0184979
0.0194737
0.0204084
0.0214032
0.0222888
0.0232907
0.0242266
0.0250798
0.026053
0.026865
0.027787
0.0286731
0.0294414
0.0302267
0.0310336
0.0317546
0.0324734
0.0330242
0.0336676
0.0341072
0.0347312
0.0351382
0.0355058
0.0359232
0.0360765
0.036241
0.0361776
0.0361741
0.0358863
0.0354852
0.0348194
0.0339461
0.0327357
0.031158
0.0291911
0.0268799
0.0241002
0.0209849
0.0174432
0.0137397
0.00988428
0.00622119
0.00308303
0.000875861
-3.51805e-05
0.000603531
0.00276053
0.00587095
-4.64549e-05
-6.44409e-05
0.00013237
0.00027059
0.000301998
0.000248079
0.00015114
4.22139e-05
-4.83357e-05
-0.000106446
-0.000128999
-0.000115964
-6.8272e-05
1.21127e-05
0.000122876
0.000264196
0.00043349
0.000629437
0.000853928
0.00110324
0.00137716
0.00167245
0.00199184
0.00232563
0.00268001
0.00305427
0.00344934
0.00387163
0.00430722
0.00476485
0.00524413
0.00574954
0.00626024
0.0068124
0.00738722
0.00796671
0.00859051
0.0092095
0.00987481
0.0104996
0.0111663
0.0118393
0.0125595
0.0132146
0.013942
0.0146667
0.0153908
0.0160557
0.0167931
0.0175644
0.0182635
0.0189832
0.019724
0.0204226
0.0211324
0.0219185
0.0226512
0.0233785
0.0241083
0.0248393
0.0255469
0.0262476
0.0269273
0.0276607
0.0283768
0.0291346
0.0297421
0.0303999
0.031011
0.031666
0.0322757
0.0329338
0.0336216
0.0342454
0.0347834
0.0354399
0.035997
0.0366479
0.0371414
0.0376633
0.0380771
0.0383497
0.0385475
0.0384041
0.0380822
0.0375394
0.0365096
0.0351376
0.0331843
0.0305609
0.0275122
0.0238898
0.0197976
0.0154509
0.0110929
0.00713561
0.00388166
0.00160142
0.000371683
0.00843506
0.00640078
0.00530759
0.00484467
0.00470892
0.004798
0.00499833
0.00524872
0.00550798
0.00573402
0.00591878
0.00605715
0.00614449
0.00619519
0.0062095
0.00619978
0.00617174
0.00614704
0.00610379
0.00608298
0.00608886
0.00609926
0.00611273
0.00615665
0.00623238
0.0063095
0.00642484
0.00658783
0.00675679
0.00697335
0.00719677
0.00747026
0.00777467
0.0080797
0.00843864
0.00879161
0.00919991
0.00962625
0.0100404
0.0104694
0.0109453
0.011395
0.011927
0.0123829
0.012883
0.0134234
0.0139542
0.0144245
0.0149846
0.0155225
0.0160357
0.0166328
0.0171372
0.0177194
0.0182659
0.0188244
0.0193266
0.0199023
0.0204841
0.0209966
0.021653
0.0222324
0.0227309
0.0233777
0.0239348
0.0244524
0.025033
0.0255948
0.0262304
0.0268572
0.0274608
0.0281504
0.0288235
0.0295693
0.0302994
0.0311168
0.0320005
0.033071
0.0339611
0.035
0.0360484
0.037089
0.0382029
0.0393605
0.0401517
0.0410345
0.0415564
0.0417729
0.0414957
0.0408695
0.039384
0.0374124
0.0344675
0.0309289
0.0267528
0.0222805
0.0178557
0.0137748
0.0104198
0.0257234
0.0231895
0.0215183
0.0209066
0.0207447
0.0208129
0.0208898
0.0208982
0.0206846
0.0202628
0.0196076
0.0188034
0.0178187
0.0167083
0.0156091
0.0144597
0.0133711
0.0123642
0.0114489
0.0105733
0.00978734
0.00915081
0.00854974
0.00806711
0.00765218
0.00732701
0.00706495
0.00686268
0.00674387
0.00667796
0.00666305
0.00669607
0.0067994
0.00694185
0.00709416
0.00730832
0.00752042
0.00775882
0.00804633
0.00835603
0.00867734
0.00901033
0.00935137
0.00973219
0.0100784
0.010458
0.010829
0.0112367
0.01163
0.0119989
0.0123987
0.0128201
0.0132106
0.0136241
0.0140459
0.0144264
0.014877
0.0152792
0.0156852
0.016165
0.016581
0.0169901
0.0174715
0.0178867
0.0183648
0.0187542
0.0192099
0.0196648
0.0202008
0.0207293
0.0212752
0.0219196
0.0225687
0.0232379
0.0241124
0.0249104
0.0258352
0.0269837
0.0281415
0.0294191
0.0309235
0.0325366
0.0341206
0.0360417
0.0378902
0.0397749
0.0416465
0.0434496
0.0449679
0.0463825
0.0470311
0.0470998
0.046376
0.0449782
0.0424922
0.0391588
0.0355512
0.0315919
0.0278027
0.0454035
0.0435426
0.041802
0.0414171
0.0411358
0.0410108
0.0405931
0.0398018
0.0385345
0.0367484
0.0345925
0.0320439
0.02935
0.0265283
0.0236802
0.0210561
0.0185801
0.0163282
0.0143398
0.0125991
0.0110285