/*--------------------------------*- C++ -*----------------------------------*\
| =========                 |                                                 |
| \\      /  F ield         | OpenFOAM: The Open Source CFD Toolbox           |
|  \\    /   O peration     | Version:  2006                                  |
|   \\  /    A nd           | Website:  www.openfoam.com                      |
|    \\/     M anipulation  |                                                 |
\*---------------------------------------------------------------------------*/
FoamFile
{
    version     2.0;
    format      ascii;
    class       volScalarField;
    location    "20000";
    object      I1_36;
}
// * * * * * * * * * * * * * * * * * * * * * * * * * * * * * * * * * * * * * //

dimensions      [0 0 0 0 0 0 0];


internalField   nonuniform List<scalar> 
14751
(
7.79265e-25
9.43216e-21
5.35995e-20
-8.10828e-19
5.76541e-19
-1.78052e-19
1.41332e-17
-8.47691e-18
-3.26987e-19
-3.4604e-21
-8.62564e-20
1.96092e-21
3.81395e-20
5.46764e-21
1.00937e-19
-2.41675e-21
-2.91573e-20
-2.17392e-21
-4.66875e-21
-1.22017e-21
2.0343e-21
2.82037e-21
-2.59033e-21
2.49583e-21
-1.40511e-21
7.60637e-22
-1.3986e-24
-1.20519e-21
-9.05244e-22
-1.81253e-22
6.11538e-22
4.62152e-22
3.07356e-22
1.21243e-21
2.16211e-22
8.48513e-22
-1.53716e-21
-6.34976e-24
1.78249e-22
-1.14722e-22
1.01166e-21
1.18486e-19
-1.13192e-21
5.61049e-20
-1.22875e-21
7.19974e-21
2.28998e-19
-1.36035e-20
8.31274e-24
-1.54275e-18
-3.72433e-18
1.81087e-20
-2.84192e-21
9.42351e-22
-6.13172e-24
5.00329e-22
2.36301e-21
2.52625e-20
1.98066e-20
5.02758e-20
-3.49343e-21
-5.73632e-21
-3.0168e-20
-9.94392e-21
1.30991e-20
-8.18214e-22
7.78869e-21
1.81957e-21
-5.15998e-21
2.44395e-21
7.18436e-21
-8.60152e-22
-1.38687e-20
-1.42691e-20
-1.283e-20
8.50802e-22
9.92128e-21
1.35934e-20
-8.56444e-22
-2.24397e-20
-2.06107e-20
-1.35725e-20
-2.44318e-21
1.74778e-21
-1.62328e-20
-2.20177e-20
2.5304e-20
-1.46248e-22
0
-6.64073e-24
-3.87706e-20
5.07214e-21
-3.24437e-21
4.24079e-22
5.56829e-22
6.78069e-21
6.91739e-21
2.11323e-22
-1.21777e-23
-7.35363e-20
-8.54412e-19
7.05253e-19
2.64655e-17
-4.71097e-19
-1.48877e-18
-1.07561e-17
5.89593e-19
5.42207e-18
1.05991e-19
3.51879e-18
-1.3648e-19
-2.61831e-18
-8.49444e-20
2.13706e-19
-1.46796e-20
-2.01023e-19
1.10341e-19
6.59082e-19
8.49259e-20
-6.7582e-21
-6.58731e-19
7.20885e-19
-7.81622e-19
8.55911e-20
-1.20213e-21
4.05751e-21
6.42048e-19
4.13248e-20
-4.39616e-20
4.53384e-20
2.65117e-22
3.84398e-19
4.48356e-19
3.25147e-20
5.49273e-19
-6.69796e-19
-1.14259e-21
5.59954e-20
-3.31074e-20
-1.0177e-21
-1.63765e-21
-9.14857e-22
-1.10219e-20
9.7857e-21
1.41737e-18
5.6096e-19
-2.11195e-18
1.95325e-18
-8.58291e-19
1.02254e-20
3.35655e-20
-5.6509e-20
-5.30479e-21
9.6439e-20
-1.3848e-21
-4.25437e-21
1.44996e-20
1.77362e-21
1.86794e-19
1.29747e-20
1.32468e-19
-1.77081e-18
-1.74096e-18
1.4756e-18
3.60041e-20
-2.76775e-19
1.71624e-19
-1.67604e-20
1.35875e-18
5.78087e-20
-6.57767e-20
-2.57114e-18
-2.67875e-18
-4.37721e-19
2.75412e-19
2.30315e-18
3.06927e-18
-3.37711e-19
3.91184e-19
-2.13946e-18
3.66768e-20
-3.2961e-19
7.15438e-19
-2.62161e-19
-4.69596e-18
1.3205e-19
-1.57795e-19
9.87269e-23
6.67339e-20
-2.93515e-20
-5.86469e-18
-3.95936e-20
1.47133e-19
-6.23073e-20
-2.73949e-18
-5.62907e-20
-2.88878e-20
-1.15501e-21
2.10816e-19
5.98749e-17
-1.60993e-16
4.95134e-18
5.19384e-17
-2.95013e-17
9.97853e-18
-2.4874e-19
-5.97679e-18
-8.95055e-18
4.17928e-18
-2.26629e-19
3.02252e-18
3.21234e-20
4.66018e-18
2.22222e-19
-5.9742e-21
3.79366e-20
-7.58321e-19
-2.68473e-19
1.00795e-20
6.69082e-19
-6.46858e-19
-2.64741e-18
-1.77758e-18
2.21969e-19
-2.11029e-18
-9.64413e-19
1.25487e-19
-1.34429e-19
-2.29267e-18
2.5921e-18
1.64715e-18
8.92481e-19
-4.0798e-21
-7.53664e-19
9.57793e-19
-2.25505e-18
3.42381e-20
-2.44812e-20
-9.43207e-20
2.077e-19
-2.03359e-20
2.46916e-18
1.15956e-18
-1.02292e-18
2.64192e-18
-4.69785e-17
-5.51262e-18
6.94367e-19
-2.87738e-18
-7.08953e-20
-6.15822e-19
3.4048e-18
-4.33289e-20
5.41221e-18
2.82579e-19
-2.40702e-19
-4.51462e-19
3.15874e-19
-2.86511e-19
6.45079e-18
2.94952e-18
-2.50552e-18
-3.2708e-18
-3.54865e-18
-1.06057e-17
-9.04825e-19
7.28357e-19
-1.17071e-17
9.63029e-18
7.32681e-18
3.41464e-18
5.33808e-18
1.0713e-18
-1.11187e-18
-4.63619e-18
1.05197e-17
1.19573e-18
-8.77899e-19
3.45583e-18
1.50497e-17
1.37335e-17
8.18542e-19
-8.38195e-19
7.41244e-18
-2.3688e-20
-7.8026e-19
4.09411e-19
2.16027e-19
-1.21464e-17
7.95331e-18
1.38219e-17
-1.44194e-17
9.83846e-20
3.68858e-18
-7.95397e-18
-1.15676e-19
-2.37127e-23
1.60215e-20
3.71407e-17
3.54625e-16
9.7777e-17
5.30552e-17
3.30764e-17
4.59435e-17
-3.63792e-17
2.87402e-17
-1.27164e-17
1.08031e-17
-1.87075e-19
4.21217e-20
5.17155e-19
-6.91525e-18
1.02993e-19
-1.44493e-19
-1.08622e-17
1.01912e-17
1.08475e-17
-7.10032e-19
1.1974e-18
-1.02751e-17
4.56083e-18
2.27609e-18
3.61468e-19
8.39818e-18
3.45237e-19
-3.87847e-19
1.12316e-20
1.03818e-17
-1.16094e-17
-3.43106e-18
-1.82806e-18
-2.84533e-19
-5.03473e-18
-5.12673e-18
-2.12955e-18
-4.033e-19
-4.9831e-18
2.27362e-19
-3.33031e-19
5.31835e-18
1.26913e-17
3.02498e-18
-1.92868e-17
1.53799e-16
-4.24299e-18
-4.91444e-20
-4.41145e-19
2.38428e-18
8.02652e-18
4.51072e-19
-5.47932e-18
8.16144e-19
-8.79969e-18
9.28593e-19
-1.91309e-18
1.35131e-17
-2.08459e-17
-1.07898e-18
-8.53981e-18
-2.81839e-18
8.36565e-18
1.74405e-17
7.79412e-18
1.52173e-17
-7.23313e-19
-2.57516e-17
1.3222e-17
-1.25878e-17
-1.26769e-17
-2.38387e-19
-3.3321e-20
-8.67685e-21
-9.18067e-21
4.66542e-19
-2.53248e-17
2.37903e-18
-2.52979e-19
4.43442e-17
-1.94714e-17
-5.97263e-17
-1.28985e-18
-1.2482e-18
-1.12585e-18
-3.75633e-17
-1.08644e-18
-2.63324e-21
3.57441e-17
1.59106e-17
-3.029e-20
-1.47874e-17
1.53937e-17
2.58436e-17
-1.61139e-17
7.89279e-18
-1.16029e-17
-3.27301e-18
-1.34485e-18
-4.63207e-18
-1.45895e-16
-5.62463e-17
3.05841e-18
5.66254e-17
-1.28318e-16
3.47479e-17
-2.74754e-17
2.31275e-17
-2.02877e-17
3.15348e-19
-2.4605e-19
-2.97365e-17
3.48997e-19
7.43666e-19
-1.34396e-18
1.18541e-17
-1.09815e-17
3.65202e-19
1.96359e-21
1.53058e-19
2.22628e-17
-7.77777e-19
7.45522e-19
-7.40842e-19
-6.04263e-18
1.23585e-18
-2.87897e-21
-1.43192e-17
-1.51458e-17
5.81897e-21
5.33153e-19
3.12218e-21
-1.45395e-20
-4.24393e-18
4.09035e-18
2.56834e-18
2.54204e-19
-9.99862e-18
-1.75165e-18
-4.97918e-17
-9.06418e-17
-2.43381e-17
3.01519e-15
3.85587e-16
8.47169e-17
-4.11932e-17
-7.7379e-19
8.56505e-19
-7.09636e-18
-6.67956e-18
-1.09207e-17
-1.67903e-19
-4.10112e-19
1.41845e-17
2.58433e-17
2.60479e-17
-1.16836e-17
2.05011e-17
-1.81388e-17
-5.1203e-19
-9.78289e-19
3.54107e-17
-1.70273e-17
-3.15257e-19
-2.46981e-18
2.76419e-17
2.69799e-17
-4.68483e-19
4.49207e-17
3.68767e-18
-5.09344e-18
2.34671e-18
2.62328e-20
-3.61388e-19
3.22147e-17
6.33994e-19
-3.44057e-17
-2.40053e-18
-3.64498e-17
-3.3379e-17
3.12584e-17
8.36138e-20
-1.32191e-21
-3.53172e-20
3.00467e-17
5.73284e-17
2.49495e-20
-2.49604e-17
1.00902e-19
5.02843e-17
1.24514e-19
3.03362e-19
5.68036e-18
-1.12101e-18
6.75024e-17
-9.1802e-18
4.80462e-17
-6.42664e-18
-1.11192e-16
1.07962e-18
-1.12069e-19
-5.98259e-17
-1.30158e-16
6.79853e-17
5.56887e-17
-8.89261e-20
2.38482e-19
3.04001e-19
-1.01698e-19
2.85948e-17
2.47613e-17
-2.85817e-19
-8.177e-19
4.68701e-19
-2.10423e-17
2.14742e-17
-2.92485e-17
-9.08236e-19
5.99579e-19
-9.36307e-18
6.50253e-19
5.25303e-19
-4.71929e-20
-1.06348e-17
-9.52657e-18
-1.12015e-17
1.08455e-17
5.64494e-18
5.68734e-18
1.11593e-17
3.35668e-19
-9.09989e-22
1.75614e-20
1.15047e-20
2.42921e-19
-2.28668e-17
3.19098e-17
-2.022e-16
-1.23369e-17
1.39804e-17
1.84942e-17
-4.80885e-18
-5.57996e-17
-1.97071e-17
2.67681e-17
-5.03764e-18
-4.15348e-19
3.80465e-18
-4.42541e-19
5.84689e-18
3.90998e-19
4.60184e-19
-2.57543e-17
-1.60442e-17
-2.88683e-17
-1.60707e-18
2.54135e-17
1.25604e-17
-2.20037e-17
-2.17305e-17
-2.15875e-17
-1.7502e-19
1.25971e-18
-1.81156e-18
-5.18632e-17
3.23509e-17
3.24214e-18
-6.00164e-17
2.98152e-17
3.06492e-19
5.14415e-21
-8.46298e-21
6.59038e-19
-7.41354e-17
2.49091e-18
2.22995e-17
-4.3312e-17
-6.49648e-18
7.23998e-17
3.02776e-18
-1.41961e-18
-1.43544e-18
1.14409e-18
-6.16729e-19
-8.24068e-17
4.14073e-17
-2.62321e-19
2.95125e-19
-1.58983e-17
-1.32247e-19
1.46354e-19
3.36025e-17
-2.022e-16
-3.67495e-16
-2.50437e-16
6.69494e-18
4.42944e-17
-4.99904e-17
-6.8767e-17
-8.74095e-17
1.78905e-18
1.10278e-16
-1.18354e-18
-7.47789e-17
-6.31407e-17
-3.37118e-19
-3.59555e-20
-4.37644e-17
-1.93713e-17
1.40617e-19
1.75978e-19
1.62747e-17
-7.94648e-19
2.88381e-17
-1.33185e-17
1.33711e-17
-1.6312e-18
5.31628e-20
7.17144e-19
-6.25858e-19
1.25771e-17
-7.59351e-19
6.34027e-18
-5.97964e-18
5.24638e-18
1.17289e-17
-3.38953e-19
-5.00771e-18
-4.16955e-18
-7.48815e-20
2.16931e-20
-2.42008e-18
-1.86193e-17
2.33267e-17
7.08337e-17
-1.07417e-18
3.48292e-15
3.45638e-16
6.97097e-18
-4.97063e-18
-7.03163e-20
-7.40045e-20
6.88138e-19
-4.01162e-18
-1.66466e-18
-5.56727e-20
2.52937e-18
2.51697e-20
1.90758e-19
-2.34211e-19
-1.49517e-19
6.73606e-18
-9.95463e-20
1.76176e-17
4.38765e-19
-1.00493e-17
9.14863e-18
7.8349e-19
8.66499e-18
1.97757e-19
-6.70545e-21
8.45534e-19
-1.65606e-17
1.46746e-17
-1.45786e-17
6.51913e-19
1.40187e-17
-1.43122e-17
-1.19243e-18
1.74309e-18
-8.35251e-19
-3.28542e-19
2.6299e-17
1.92458e-18
-1.76355e-18
2.53263e-17
2.06986e-18
-2.91613e-17
1.49582e-18
9.56992e-19
-5.10611e-17
-5.03443e-17
6.60072e-19
2.5147e-17
-5.68436e-17
-3.05483e-17
-1.70796e-17
-8.92215e-20
-8.61883e-22
-2.79017e-19
-2.05062e-16
-5.25083e-19
-6.51113e-15
1.296e-15
-4.32228e-19
8.78298e-19
7.74174e-17
2.86957e-17
8.48098e-17
-7.11801e-17
-2.85634e-17
-5.26419e-20
2.0674e-17
3.59583e-17
3.18628e-17
6.73518e-19
-1.04718e-18
-2.38114e-17
2.15776e-17
-4.82964e-19
-8.80385e-18
-1.09328e-19
-2.50972e-17
5.8088e-19
4.83119e-20
-5.44154e-21
1.29877e-22
-2.17353e-20
-5.84694e-18
-5.48955e-18
5.51858e-18
-5.19659e-18
4.50123e-18
-1.074e-21
-3.38806e-18
2.35333e-18
5.73942e-19
3.89269e-20
-2.80576e-18
-2.34118e-21
-4.63739e-19
3.64613e-17
-5.38149e-17
-6.85074e-16
-1.25923e-17
-1.81934e-18
1.98998e-20
-2.51194e-17
2.17594e-19
-1.21094e-20
-4.65301e-18
7.12855e-20
-1.77979e-18
7.35493e-19
-2.93911e-20
-6.00146e-19
7.51429e-20
-1.79079e-18
-4.62918e-20
-1.4907e-18
-8.5697e-20
1.3545e-19
-2.68864e-18
2.44063e-18
-1.14014e-20
-2.17102e-18
2.07038e-18
-1.09262e-19
8.77561e-22
1.40701e-20
3.39657e-18
3.11658e-18
-6.07015e-18
-6.29417e-18
-6.10316e-20
5.74989e-18
-5.68012e-18
-6.80391e-18
2.78281e-19
4.30771e-19
-7.02956e-18
1.5782e-19
1.18516e-17
1.98979e-19
-1.41578e-17
1.32904e-17
-1.60042e-17
3.9621e-19
-4.1504e-19
1.0788e-19
-1.71031e-19
5.12325e-19
-4.49461e-19
2.08109e-19
5.26538e-18
5.43951e-21
-2.04299e-17
5.01147e-19
-8.38001e-19
-3.12045e-18
5.62813e-17
1.79042e-15
-7.01583e-19
-1.4256e-21
-4.95136e-18
3.85037e-19
2.52878e-17
-1.93533e-17
3.3387e-17
2.98329e-17
2.56666e-17
3.30718e-20
2.75785e-20
-1.90404e-17
-1.7603e-17
1.65363e-17
1.48115e-17
7.46151e-19
-7.95312e-19
1.26007e-17
4.09245e-19
1.0906e-17
-3.24658e-19
3.07365e-19
-9.57745e-22
-5.69787e-22
-2.46241e-20
-3.28432e-18
-1.7986e-19
2.74168e-18
2.26476e-18
-1.88596e-18
-1.07287e-18
3.13804e-23
6.51206e-19
-2.08782e-18
4.51505e-18
-4.01703e-18
1.52825e-17
1.6922e-17
1.4967e-18
-6.77345e-18
3.24949e-18
-1.63074e-17
-5.61085e-18
-1.21851e-18
2.4073e-19
3.00564e-19
3.77333e-19
-5.64709e-19
3.53842e-19
-1.74157e-19
1.13707e-20
-2.5917e-21
1.07846e-19
2.05996e-19
3.69953e-21
-2.86145e-20
-1.34667e-18
9.75596e-19
-3.9692e-20
1.98789e-20
8.98475e-19
4.52576e-21
7.95479e-21
-7.73139e-21
1.7069e-20
-1.39899e-19
-3.58921e-18
5.5792e-18
-5.3634e-20
-3.63308e-18
-7.11137e-18
3.45792e-18
3.53826e-18
-6.78101e-18
-3.38204e-18
-1.98111e-19
8.49638e-21
3.27509e-18
1.80082e-20
1.10182e-17
-2.98804e-20
-4.69978e-18
-9.74079e-23
1.51032e-20
-7.81233e-21
-2.61223e-18
-1.89313e-18
-1.26392e-18
-4.31589e-21
7.32947e-19
-3.87265e-19
-2.45934e-20
-1.73352e-17
2.47178e-17
-1.81411e-19
-5.00623e-19
-3.98409e-15
-7.09749e-16
1.42509e-18
2.04289e-21
-1.73612e-20
-8.18885e-19
-4.8919e-18
-2.05334e-17
-7.59379e-20
1.34454e-19
-1.64729e-17
-1.54071e-17
6.28016e-21
2.14694e-20
-1.35954e-17
1.29831e-17
3.05647e-20
1.20532e-17
-1.1526e-17
9.45637e-21
-2.06573e-17
-9.79895e-18
9.59531e-18
-8.79906e-18
-2.51193e-19
4.09573e-22
2.24629e-19
6.31901e-18
5.82504e-18
-5.14682e-18
-4.35324e-18
3.98253e-21
1.26734e-18
7.24065e-19
-2.07699e-22
5.97738e-22
1.16235e-21
-3.88832e-18
3.56742e-18
2.84417e-18
-2.21354e-17
9.10745e-18
-1.85671e-18
-5.0916e-17
-1.79601e-17
-2.4971e-17
5.16647e-18
4.41407e-18
-3.80081e-18
-1.10336e-19
1.69356e-18
-1.58876e-18
-2.45448e-22
-7.03435e-19
1.02846e-20
-3.21185e-19
5.79424e-19
3.50105e-20
2.35226e-18
2.31553e-18
-2.18237e-18
-7.79618e-20
-8.06032e-21
4.26707e-18
-4.18959e-18
-1.39683e-19
1.46662e-19
-7.80314e-18
-5.40526e-19
8.13939e-18
-1.569e-17
4.48382e-19
-2.62728e-19
1.51276e-17
-7.51104e-18
3.55492e-19
6.15383e-18
1.46957e-17
-8.11761e-19
4.76002e-19
-1.35643e-17
4.06927e-19
-1.28016e-17
-6.3203e-20
3.11598e-20
-3.48226e-19
-1.0564e-17
2.88861e-19
9.39154e-18
4.30801e-20
1.95712e-19
-3.09931e-18
1.20252e-19
-4.19238e-22
-4.08556e-23
-2.90365e-17
-6.58762e-17
9.51772e-19
-4.89294e-18
-1.23572e-16
7.69558e-18
2.50054e-19
-7.53169e-20
-2.18418e-21
2.12016e-19
8.4307e-20
-3.96414e-18
9.05787e-18
1.03471e-17
2.30798e-19
2.07935e-19
-1.29055e-19
-8.29425e-21
1.10933e-17
2.25144e-17
-2.20094e-17
-1.05701e-17
-2.9059e-19
-2.06519e-17
1.00409e-17
-9.64679e-18
9.27323e-18
8.96505e-18
8.7977e-21
-6.90555e-21
7.34417e-18
-7.06554e-18
3.90772e-19
1.15911e-17
1.0604e-20
-4.60711e-18
1.20743e-19
3.21588e-18
1.03192e-19
3.83894e-18
-3.37691e-18
-1.687e-17
-7.79585e-19
-1.73382e-19
4.58788e-16
-8.78841e-20
-1.42057e-18
5.00298e-17
7.25735e-20
9.15956e-20
-1.16119e-17
-5.25782e-18
-3.05986e-19
-7.82084e-21
-4.85088e-21
7.5051e-20
-1.86508e-18
8.75366e-19
1.80914e-21
9.17176e-21
-3.05175e-18
-1.49349e-18
-2.9964e-20
2.80888e-18
-5.03527e-20
-5.32217e-18
3.55654e-20
-1.04803e-17
5.11584e-18
2.14742e-20
-3.43947e-19
3.71111e-19
4.67929e-21
-1.01771e-20
-2.63958e-19
9.73916e-18
-4.77255e-19
-9.36084e-18
5.83385e-19
-1.74831e-17
-7.16339e-20
-1.70658e-17
-8.28208e-20
8.38622e-20
-1.63547e-17
-7.99173e-20
6.13762e-19
-1.55187e-17
-1.134e-21
-1.43343e-17
-1.84951e-19
2.38782e-17
-3.14054e-19
1.47639e-17
-8.8302e-18
-4.73173e-18
-1.28677e-17
6.05139e-17
-9.67481e-19
-3.04245e-16
4.72685e-16
3.15006e-18
8.33023e-18
-5.09817e-18
-9.30415e-17
-3.57751e-17
5.67937e-18
-5.52249e-20
-2.61163e-21
-1.88513e-19
7.87017e-18
-2.66467e-19
-7.50132e-18
-2.08003e-19
1.84256e-17
-1.97987e-17
-1.12596e-19
-1.62478e-19
-2.16804e-17
3.7314e-20
5.11246e-20
-6.51195e-20
2.16857e-17
-7.92037e-20
4.19797e-17
-2.03901e-17
5.90699e-19
-6.02359e-19
1.58377e-20
-8.95671e-18
-8.61017e-18
8.16934e-18
-1.55303e-17
-2.92519e-20
7.15272e-18
4.8826e-21
-7.72673e-18
-9.34115e-18
-1.56959e-17
1.37263e-18
3.67742e-17
1.42202e-16
4.24051e-16
-6.75265e-18
-8.83656e-17
-5.61898e-17
1.99438e-17
-1.85533e-21
1.33184e-17
-3.1656e-19
6.85649e-19
-9.73661e-18
-4.54887e-18
9.95006e-20
3.83949e-18
1.94053e-18
-8.78117e-19
-2.25751e-21
-1.84752e-20
1.6877e-18
-2.60695e-20
-3.19759e-18
-2.94541e-18
1.53086e-19
5.84268e-18
5.53042e-18
5.67518e-18
-4.12373e-22
8.83036e-20
-1.0423e-17
9.87162e-18
3.54858e-19
1.02716e-17
-1.26447e-19
-3.00365e-17
-4.83494e-19
7.70873e-19
-1.92148e-17
1.83944e-17
-1.79434e-17
5.49929e-19
-6.01099e-19
-1.13407e-19
1.7583e-17
1.188e-18
-8.84501e-20
1.53537e-17
-9.6178e-20
2.77582e-17
-2.57359e-17
-4.38594e-17
1.50348e-17
-8.60279e-18
-8.30283e-20
2.41648e-17
7.24378e-20
-1.49638e-16
3.59396e-16
-5.49476e-18
2.03841e-17
-3.39509e-18
-9.65757e-16
1.76682e-16
8.83821e-17
4.46573e-17
-2.21515e-17
1.28955e-19
-1.42646e-19
1.08029e-19
-2.36426e-18
-8.51185e-18
1.35097e-17
4.98289e-19
-3.60544e-17
1.98534e-17
1.42462e-19
-1.18541e-19
2.27779e-17
2.38079e-19
-1.79453e-22
-2.85753e-19
-2.33924e-17
-7.57697e-19
-2.29554e-17
-8.96102e-20
2.30224e-17
6.12464e-20
-8.38851e-21
-7.10601e-19
1.21083e-17
-1.05362e-17
9.76825e-18
1.53381e-20
-3.03095e-19
1.27205e-17
-4.81886e-19
2.01489e-17
-3.4569e-17
2.38074e-18
-1.09778e-17
9.97043e-18
-8.67982e-18
-1.00365e-16
6.18297e-17
3.27183e-19
-3.36936e-17
-4.27502e-20
2.33875e-20
-2.84766e-19
2.83105e-19
9.20471e-18
4.58115e-20
-3.91137e-18
-4.05117e-18
-7.95768e-20
9.59088e-19
-5.2189e-20
8.53222e-21
-1.61076e-18
5.92215e-20
-3.27304e-18
6.23075e-18
2.37845e-20
-2.13477e-21
-5.91599e-18
-1.14847e-17
1.15252e-19
1.08799e-17
1.13298e-17
-5.24534e-20
1.09771e-17
-1.03576e-17
-1.07292e-17
2.07548e-17
-5.276e-19
3.61316e-19
4.03711e-17
4.41681e-20
1.96664e-17
9.89279e-19
-1.98714e-17
7.98919e-19
-3.65103e-17
-3.19766e-19
-1.10091e-18
2.02276e-18
-1.19292e-18
2.70546e-17
2.77252e-17
1.95023e-17
-1.04331e-17
-6.01005e-19
-5.0203e-17
2.11423e-18
1.30614e-16
4.65348e-19
-8.59231e-16
6.80836e-15
-6.34473e-18
-1.43121e-15
5.82081e-16
-1.32048e-16
1.35626e-18
5.68307e-19
1.14042e-17
-7.21777e-20
3.98788e-19
-3.78795e-19
1.87031e-18
4.98943e-18
-7.42355e-19
-4.1164e-19
3.77358e-17
-2.43228e-19
3.15044e-19
4.85203e-20
-2.46427e-17
2.50854e-17
-4.00864e-19
1.95113e-19
2.65975e-17
-7.35824e-19
8.90962e-19
8.18761e-20
-2.60568e-17
-8.41476e-19
-2.67532e-17
-9.0315e-19
8.61326e-19
-1.41928e-20
2.04408e-20
4.03031e-20
-3.16235e-17
-1.83358e-17
-1.09088e-20
-1.11804e-18
6.96238e-17
6.92284e-20
3.1082e-20
-5.63001e-19
-3.65775e-16
7.10755e-17
-1.48887e-19
3.45486e-17
3.11655e-17
-7.73861e-19
2.22468e-17
2.02786e-17
-2.62238e-19
-1.21284e-20
2.11226e-19
8.1474e-18
-3.97248e-18
5.23504e-20
-1.79855e-18
-6.28046e-20
9.0175e-19
1.635e-18
-8.31566e-21
6.48879e-18
-6.13618e-18
-2.22423e-20
-1.9078e-19
-2.81594e-19
2.41216e-17
1.20335e-17
-2.32958e-17
-1.83487e-19
4.47393e-19
-8.02483e-19
6.0658e-19
2.18002e-17
2.91476e-20
7.57257e-19
-4.51116e-19
-2.05792e-17
-7.76575e-19
-3.77333e-19
4.00775e-17
2.09315e-17
3.876e-17
3.73175e-17
-3.59635e-17
-2.82246e-19
1.07902e-18
2.84354e-19
-2.89965e-17
-2.28514e-17
-1.72222e-17
-5.68223e-19
-4.32111e-21
6.54501e-20
1.42813e-18
-2.35541e-16
5.64946e-16
-1.85961e-15
-1.18518e-14
1.76209e-18
-5.84385e-18
4.23897e-16
-1.59034e-18
-6.37058e-19
-4.86193e-19
-1.26662e-19
1.19919e-20
-4.34157e-20
2.75663e-18
-3.37831e-18
2.89396e-19
-1.49564e-17
5.48225e-20
-2.06904e-17
-2.21076e-17
2.40677e-17
1.71719e-20
2.67443e-17
9.45764e-20
-2.80299e-17
-3.00696e-17
2.18268e-19
1.39719e-19
-5.50905e-20
9.73086e-20
-3.10599e-17
-1.81043e-19
3.26416e-17
-8.64145e-19
-3.27127e-17
-6.77952e-20
5.54936e-20
1.0733e-18
8.36089e-17
8.43893e-19
-1.12794e-18
5.98148e-17
3.72842e-18
2.77061e-16
1.56446e-19
-2.90076e-16
1.5981e-16
-8.41961e-20
-1.20378e-18
8.42443e-19
-9.9814e-19
1.43613e-18
-7.47415e-19
-1.89316e-17
-3.32126e-19
8.76337e-18
-8.31561e-18
3.71438e-18
4.04439e-18
-1.08886e-19
1.79636e-18
1.17895e-19
-8.01811e-19
-7.58364e-20
3.2055e-18
-3.30956e-18
6.52254e-18
2.80363e-20
1.72843e-21
1.21109e-19
-2.44934e-17
-1.235e-17
2.42556e-17
-4.60385e-19
2.3365e-17
-1.10615e-17
-6.50734e-19
2.25537e-17
-7.17735e-19
2.26556e-17
2.22361e-17
-2.13793e-17
-1.42776e-19
-2.43824e-19
-4.0614e-17
-6.19645e-20
-3.82101e-17
-3.13965e-18
3.89744e-17
-1.18342e-18
3.70539e-17
3.18153e-19
-8.97714e-19
5.91357e-19
-1.82731e-19
-6.18468e-20
1.2957e-19
6.22637e-17
2.30047e-18
3.45723e-16
-1.87747e-15
6.64791e-15
-1.77989e-17
3.53281e-18
5.73718e-16
-3.11526e-16
-1.75772e-16
1.16737e-16
3.38294e-17
2.1024e-17
-1.39363e-19
-5.05736e-19
-2.4357e-18
-5.56787e-18
9.79709e-18
-1.4895e-17
-2.21098e-19
1.74529e-19
4.88661e-17
2.55825e-17
3.49044e-19
-2.94601e-17
-1.89644e-20
-3.06158e-17
3.28146e-17
8.55844e-20
6.63892e-17
-3.51368e-17
8.52994e-19
3.5577e-17
-1.03059e-18
1.06457e-18
3.64654e-17
4.13848e-17
-1.10898e-18
-4.33922e-17
-6.59454e-20
3.04583e-19
-1.08176e-18
8.20053e-20
-2.49803e-16
-1.59379e-16
-7.08998e-16
1.0648e-17
1.92661e-16
-2.70479e-19
-2.28372e-19
-1.77888e-19
-8.26916e-19
-2.34516e-17
6.55201e-19
-1.94843e-17
1.04358e-19
1.8748e-20
-8.4997e-18
1.58169e-17
1.38328e-19
7.13771e-20
7.31811e-22
1.9719e-20
-1.95112e-20
1.64236e-18
8.33461e-20
-3.33274e-18
3.20472e-20
-6.71291e-18
1.70774e-19
2.02268e-19
-6.4973e-19
1.28119e-17
1.24925e-17
-2.45286e-17
-2.35403e-17
-2.41043e-17
5.90213e-20
-2.32485e-17
3.3857e-19
-1.27512e-18
-2.20887e-17
-4.50031e-19
2.22458e-17
-5.35407e-20
4.28865e-17
-8.99002e-19
2.96077e-19
-3.94989e-17
-3.02138e-19
-5.10699e-20
1.10416e-20
-1.11152e-18
-1.71114e-20
6.1181e-19
2.37043e-17
1.39176e-17
2.07362e-20
-5.63329e-17
1.22065e-18
-4.55122e-18
-4.75171e-16
-1.36734e-15
-3.75466e-15
2.31273e-15
-9.1985e-16
-4.27727e-16
-2.58855e-16
1.47327e-16
-1.93461e-16
3.1944e-17
3.37427e-19
-7.67335e-21
2.05912e-19
-7.27648e-19
9.41369e-18
-2.45373e-17
1.78955e-17
2.22033e-19
-1.51995e-19
2.52723e-17
-5.63064e-17
-3.88852e-19
2.52618e-19
-3.24588e-19
6.90724e-17
-1.05341e-19
7.21503e-17
-7.26361e-17
3.69723e-17
4.25135e-19
-8.1417e-17
4.06282e-17
4.35276e-17
-4.45315e-17
1.40525e-18
-1.57094e-18
5.11364e-17
1.04945e-19
2.30233e-18
2.10988e-19
-2.26385e-18
2.16679e-16
6.17444e-16
6.09886e-16
2.29938e-16
-3.07912e-19
2.77968e-18
-7.23314e-17
-5.60287e-17
-8.64806e-19
4.25968e-17
6.70544e-19
-6.04615e-19
1.84278e-17
-5.14139e-19
1.59345e-17
-7.74784e-18
5.64398e-22
-7.28227e-18
-2.01147e-20
-1.31966e-22
5.98687e-21
-1.71365e-18
3.3351e-18
-7.59759e-20
1.02923e-19
-1.45567e-19
1.96646e-19
-1.40628e-22
2.89006e-21
-6.39817e-20
2.1842e-19
1.17905e-17
2.47154e-17
-2.39715e-17
-1.97024e-19
2.39015e-17
-4.64809e-17
-2.77642e-19
2.3071e-19
-2.2701e-17
6.0167e-20
4.34216e-17
9.38892e-21
1.07487e-20
-1.34346e-18
2.72051e-18
-1.2693e-18
9.75441e-21
3.22633e-19
-3.60553e-17
-3.17627e-19
-4.97967e-21
9.02009e-19
4.07194e-19
5.63207e-18
1.07927e-18
-6.24475e-19
-4.41854e-16
1.16604e-17
3.34311e-15
2.34616e-17
-8.03933e-18
6.75592e-16
1.04092e-15
2.10109e-16
1.30016e-16
8.23487e-17
-5.26053e-17
9.58336e-19
7.71142e-21
9.81092e-20
5.62248e-20
-1.16169e-18
2.91439e-17
-1.00884e-18
9.13336e-20
1.04882e-18
-5.84251e-17
6.10308e-17
4.05257e-19
3.49861e-21
0
-3.54672e-19
2.36693e-19
-9.62477e-20
-8.19052e-17
8.19646e-17
8.76443e-17
8.92073e-17
-1.36389e-16
4.66084e-17
-9.52127e-20
-1.58567e-18
1.59532e-18
5.89666e-17
1.79885e-19
-7.80912e-17
-1.01436e-16
1.46752e-16
4.93422e-19
5.92899e-19
-7.12116e-16
-1.68157e-16
4.79403e-19
-7.73898e-17
6.09145e-17
4.94737e-17
1.4843e-18
-3.98543e-17
1.12773e-19
-1.84544e-17
-1.67403e-17
2.47925e-19
-1.51646e-17
-4.10094e-22
-1.61657e-19
7.28489e-18
1.93722e-20
-4.37842e-23
7.50472e-21
1.73251e-18
-3.36607e-18
-1.14941e-20
1.52066e-19
6.37511e-18
-1.71323e-19
4.55794e-20
-4.62172e-20
1.05541e-19
-1.21884e-17
9.71828e-21
-2.33406e-17
2.28178e-17
2.35744e-17
4.10921e-20
-4.16405e-19
8.43315e-19
-7.17121e-19
1.78291e-18
-4.66482e-17
8.77857e-20
-8.62094e-17
-1.9446e-18
1.02787e-18
4.17348e-17
-1.02949e-18
-2.68636e-20
6.04522e-19
7.57283e-17
6.28598e-19
-1.15751e-18
7.89939e-19
-5.7261e-19
-3.01969e-18
6.5486e-17
6.28266e-19
9.62576e-16
7.75279e-18
-3.31303e-15
-4.25778e-15
-2.14175e-15
1.81808e-18
-5.67788e-16
9.71603e-19
-1.06489e-16
8.36043e-19
-2.2771e-18
-3.11868e-17
2.49408e-19
1.7588e-19
-1.39681e-18
6.84689e-19
-1.76998e-17
-4.35211e-17
-1.51006e-20
5.513e-17
-5.87928e-17
-6.65027e-17
-7.0926e-19
5.70143e-19
-2.2104e-21
6.19692e-19
8.20697e-17
-8.71869e-17
9.15424e-17
-1.84202e-16
8.03758e-19
-3.46283e-18
1.9793e-16
-9.84999e-17
1.06214e-16
1.97626e-18
-3.58131e-18
-6.21368e-17
-9.40924e-20
-2.81185e-18
1.12686e-16
-1.606e-16
4.79509e-19
-3.43043e-16
3.5169e-16
-2.52212e-16
1.74661e-16
1.31608e-16
-3.3873e-19
4.51453e-17
8.97652e-20
-3.69313e-17
3.43913e-17
1.71222e-17
-4.43952e-19
-3.34661e-20
1.50441e-17
-2.267e-19
-7.06193e-18
5.85066e-20
-1.05625e-19
-1.02936e-22
-5.44302e-22
-1.38366e-20
-8.64686e-20
9.79007e-20
-6.04861e-18
-6.4814e-18
1.64405e-19
1.20174e-17
-1.20878e-17
1.19699e-17
-1.82252e-19
-1.23376e-19
2.36639e-17
2.21362e-19
-2.23183e-17
-1.1502e-18
4.46454e-17
4.47403e-17
2.59952e-19
-3.5976e-19
4.25119e-17
-4.15817e-17
1.30357e-18
-1.30869e-18
-1.79458e-20
1.59423e-18
-4.12178e-17
-7.97799e-17
-5.62679e-19
-2.26548e-18
3.80571e-18
6.09481e-17
-1.93933e-20
3.25719e-17
3.04346e-18
4.41307e-19
-4.955e-18
-4.6452e-16
-8.24653e-18
2.83767e-15
6.18536e-15
1.61064e-15
-1.12686e-18
-4.23631e-18
1.79179e-19
-1.97453e-16
7.07544e-19
4.11778e-17
1.21244e-17
-1.25275e-19
-2.5506e-19
6.04122e-18
1.43083e-17
-1.79094e-17
2.85402e-19
5.34524e-17
-6.01243e-17
6.49852e-17
7.00148e-17
1.40979e-19
-9.35425e-21
7.46881e-19
-8.59368e-17
-8.72929e-17
-1.40009e-19
-2.23576e-18
1.95033e-16
-9.82382e-17
-1.05344e-16
-1.01908e-16
6.42934e-20
-2.25804e-16
-2.33397e-18
1.49416e-20
1.91452e-18
1.04602e-19
-8.67043e-17
-3.56321e-18
4.37667e-18
-2.31775e-16
-2.93097e-20
-2.11589e-19
1.99182e-16
-2.87389e-16
-5.63124e-17
-4.63962e-17
-4.09654e-17
-1.39232e-18
3.61459e-17
-6.51678e-17
-7.52376e-19
-1.42964e-17
4.04539e-19
-1.43158e-17
-1.38774e-17
-1.43339e-21
2.41116e-20
-5.03781e-20
4.98144e-20
-1.18167e-19
-1.58618e-18
6.47708e-20
-6.08783e-18
6.03011e-18
-4.07746e-20
1.21497e-17
-1.20162e-17
-8.66761e-21
1.12736e-17
2.25846e-17
1.34933e-19
-2.2202e-17
2.18867e-17
-2.06905e-17
-2.22517e-17
-2.20529e-17
-4.19609e-17
-6.49573e-22
-4.01241e-17
-1.60712e-18
-1.67492e-19
3.92524e-17
1.91297e-19
7.37711e-19
7.90721e-17
3.92439e-17
7.52717e-17
2.93447e-18
1.2786e-19
5.5854e-19
-6.30474e-17
1.10744e-18
1.00244e-18
-6.02477e-18
-1.24127e-18
-1.64392e-16
1.18699e-17
-1.15066e-17
3.13825e-17
-2.31177e-15
1.30081e-15
-2.46936e-18
-6.243e-21
1.06362e-18
-5.33069e-18
1.75111e-18
-3.26925e-17
9.76148e-19
4.58186e-22
3.93394e-19
-8.81113e-18
-1.72043e-17
-1.86989e-17
1.11119e-18
-2.12518e-18
9.21206e-19
6.82234e-19
-1.46764e-16
-6.18744e-19
-1.02292e-18
8.59499e-17
9.07377e-17
9.10817e-17
1.86425e-18
-4.29096e-18
-9.41501e-17
-1.03847e-16
1.05728e-16
-3.26152e-18
-5.06874e-19
2.32934e-16
4.28448e-18
-6.01792e-18
2.18262e-18
-2.48843e-18
8.99992e-17
1.11489e-16
-4.47408e-18
3.78613e-16
-2.30218e-16
6.10854e-18
2.00484e-18
1.17334e-16
2.41796e-19
3.92753e-17
-7.63205e-19
-3.32423e-17
-1.82036e-19
6.10348e-17
-2.89109e-17
2.76083e-17
-1.33684e-17
-2.44754e-20
2.57979e-17
4.26186e-20
6.19244e-18
1.1255e-19
-1.04968e-19
9.3013e-20
1.6832e-21
-1.96595e-20
5.91038e-18
-1.2177e-19
-1.08761e-17
-1.12449e-17
-3.67886e-20
1.06588e-17
2.03922e-20
-2.03013e-17
-2.16382e-17
4.10026e-17
-2.02736e-17
2.01502e-17
-1.97108e-17
-4.66486e-20
1.33741e-18
-2.82234e-18
7.79015e-17
3.99811e-19
1.1778e-18
1.73653e-19
-3.83689e-17
2.16435e-19
-7.36446e-17
1.40366e-18
7.28861e-17
-7.27781e-17
-7.15613e-17
1.75234e-18
-2.63221e-19
1.01966e-18
-7.85844e-17
-2.45469e-18
1.4291e-18
1.33488e-16
3.47332e-16
-8.56355e-16
1.75765e-19
5.33326e-20
-1.04301e-15
5.97385e-16
-2.9538e-19
3.52318e-19
1.48752e-16
-1.00226e-16
-1.38774e-18
-1.01236e-17
1.03651e-19
-2.66203e-19
5.91535e-18
3.52495e-19
4.22128e-17
5.27678e-17
-5.72018e-17
-8.41807e-19
7.00263e-17
2.71385e-18
7.91567e-17
1.08333e-18
-1.09549e-18
2.92734e-19
-9.59638e-17
1.15034e-18
3.9328e-21
3.00363e-18
1.02037e-16
-3.01062e-18
3.32072e-18
3.40024e-18
-2.93553e-18
3.81516e-18
-4.03098e-18
-2.10752e-18
4.4105e-18
1.64455e-16
-9.7507e-17
-7.42914e-19
-1.49534e-16
1.65315e-16
-1.4738e-16
-2.57331e-20
-3.53552e-19
8.47362e-21
-4.47475e-19
3.14884e-17
2.96811e-17
2.88726e-17
-2.74563e-17
2.52631e-17
-3.75836e-17
1.23259e-17
4.82856e-20
-1.17561e-17
-1.06822e-20
-6.00449e-18
8.03997e-20
-2.75506e-18
-3.88044e-21
-1.33498e-18
-2.25678e-20
1.23432e-19
4.94889e-18
1.01612e-17
7.34863e-20
3.8119e-19
-1.97902e-17
-1.885e-17
-5.99734e-20
1.9117e-19
-1.8408e-17
-1.93216e-20
-5.01646e-20
1.28799e-19
-1.09962e-18
1.07033e-18
1.30104e-18
-3.42169e-17
-2.23854e-18
1.11186e-18
-2.21701e-19
3.33789e-17
1.69634e-19
6.67424e-21
3.75369e-19
-6.80223e-17
6.53317e-17
-6.32056e-17
-5.87456e-17
-1.96143e-18
-4.36907e-19
3.88377e-17
1.99977e-17
1.85649e-17
-1.20055e-18
-2.72164e-16
6.58615e-16
1.20645e-17
-1.53123e-17
8.33338e-16
-4.97929e-16
2.29101e-18
-1.69659e-18
3.87744e-18
8.25582e-17
2.49712e-17
7.15751e-18
-1.02192e-19
-1.37982e-19
-3.50382e-19
4.47073e-19
-4.5558e-17
-5.49137e-17
6.02585e-17
8.11079e-19
-7.38774e-17
1.54107e-16
-1.61936e-16
-9.59654e-19
3.98271e-20
9.15e-17
9.43915e-17
6.01528e-19
2.78119e-18
9.93934e-17
3.59291e-18
-6.96255e-18
1.12999e-16
1.12928e-16
-1.14785e-16
-3.90895e-18
3.51399e-18
-4.00987e-18
4.49657e-18
-1.4727e-16
-3.89251e-18
1.97231e-16
-2.79822e-19
1.18993e-19
1.05891e-16
1.7606e-20
-2.30241e-18
2.02569e-18
-5.79087e-17
-2.63242e-17
-1.12755e-19
-2.53992e-17
2.37976e-17
-2.34925e-17
2.29723e-17
3.37879e-19
-3.34463e-19
1.72472e-19
-3.24021e-19
1.80051e-19
8.90254e-20
2.40947e-18
-3.5199e-20
1.15393e-18
-4.58189e-18
-1.70833e-19
4.58509e-18
-2.95454e-19
2.69806e-19
-3.80993e-19
3.37276e-17
2.66359e-19
-1.62327e-17
1.52722e-17
1.62384e-17
5.71808e-20
3.5749e-19
2.95731e-17
1.15958e-19
-1.19001e-19
2.8134e-17
9.39932e-19
2.74989e-17
5.82958e-17
-5.68082e-17
5.65794e-17
-1.53242e-18
1.76296e-18
1.79309e-18
1.7876e-20
-3.8051e-18
5.78813e-17
5.58769e-17
-5.46536e-17
-3.38248e-19
4.30102e-19
1.10545e-18
-1.28082e-17
6.91927e-17
2.0098e-16
9.31838e-18
8.77336e-16
-9.49124e-16
-1.30911e-15
-1.22103e-18
-2.56476e-16
1.74312e-16
-1.11687e-16
1.74848e-18
-3.74154e-17
1.0125e-19
2.97647e-21
1.347e-20
-5.14419e-19
-5.50684e-19
4.68982e-17
1.12314e-16
-6.1632e-17
-5.32541e-19
8.7277e-19
-2.1711e-18
8.2733e-17
-1.67031e-16
-8.6968e-17
-9.33483e-17
9.17781e-17
1.92309e-16
-9.72773e-17
-1.03924e-16
1.08241e-16
-2.82596e-18
-1.05376e-16
-2.11837e-16
-4.10638e-18
-3.44357e-18
1.18491e-16
5.21797e-19
4.4349e-19
-3.2021e-18
1.42452e-16
-1.50476e-16
3.8675e-19
2.46229e-21
-9.03858e-20
-4.3222e-22
1.75142e-18
-1.60171e-18
4.71727e-17
8.62422e-19
-6.9638e-19
2.09989e-17
-2.10689e-17
2.04996e-17
-5.27475e-20
-7.91273e-22
3.10221e-19
-9.35724e-18
-1.78878e-20
-1.02047e-20
4.25782e-18
-1.44806e-20
-1.00797e-19
2.04528e-18
-1.53376e-19
2.06876e-20
-7.49912e-18
1.15325e-19
-2.24752e-19
4.78317e-19
-1.40139e-17
1.3702e-17
-2.40351e-19
-1.31702e-17
-1.22397e-17
3.50627e-19
-3.41211e-19
-4.29628e-20
7.35209e-19
-7.18693e-19
-7.91739e-19
7.78982e-19
-2.19521e-17
-2.72502e-19
4.53113e-17