/*--------------------------------*- C++ -*----------------------------------*\
| =========                 |                                                 |
| \\      /  F ield         | OpenFOAM: The Open Source CFD Toolbox           |
|  \\    /   O peration     | Version:  2006                                  |
|   \\  /    A nd           | Website:  www.openfoam.com                      |
|    \\/     M anipulation  |                                                 |
\*---------------------------------------------------------------------------*/
FoamFile
{
    version     2.0;
    format      ascii;
    class       volScalarField;
    location    "20000";
    object      I1_32;
}
// * * * * * * * * * * * * * * * * * * * * * * * * * * * * * * * * * * * * * //

dimensions      [0 0 0 0 0 0 0];


internalField   nonuniform List<scalar> 
14751
(
8.55285e-50
5.51398e-69
5.38099e-43
-6.03827e-70
3.23461e-70
-1.37116e-70
2.24208e-44
4.68517e-75
-4.48416e-44
-3.50325e-46
-7.35613e-68
1.12591e-77
1.68156e-44
-2.8026e-45
-8.96831e-44
-2.41675e-73
4.48416e-44
-2.8026e-45
-1.75162e-45
-1.4013e-45
-4.37074e-76
2.8026e-45
1.30618e-69
-1.4013e-45
-2.03739e-71
-2.8026e-45
1.09476e-47
1.05097e-45
-1.4013e-45
-6.04122e-73
-7.00649e-46
7.00649e-46
1.84741e-46
-7.00649e-46
6.48542e-74
-3.50325e-46
-1.75162e-46
1.36846e-48
-8.21073e-48
2.65138e-48
1.1752e-76
1.21932e-72
-1.75162e-46
-3.38063e-75
4.37906e-47
1.41795e-72
-2.8026e-45
-3.43729e-73
-1.06911e-50
-1.66307e-78
-1.82967e-72
5.77703e-76
-2.18953e-47
6.45852e-78
-3.36505e-74
4.37906e-47
8.75812e-47
6.23257e-75
8.00409e-75
-2.24208e-44
-4.64495e-75
-6.64307e-75
4.48416e-44
1.85059e-69
-4.20563e-70
-3.50325e-46
-2.37967e-70
1.77356e-71
2.0683e-74
7.58446e-69
-2.52562e-74
8.08761e-72
2.8026e-45
2.8026e-45
5.60519e-45
-1.20833e-75
1.4013e-45
-1.4013e-45
1.22915e-70
2.24208e-44
1.82461e-67
7.18777e-73
9.12181e-71
2.10195e-45
3.56834e-69
-4.48416e-44
-9.80018e-70
1.4013e-45
0
-5.60519e-45
4.41265e-70
-9.98425e-45
2.55162e-72
-2.50132e-71
-1.4013e-45
1.26117e-44
4.48416e-44
-2.8026e-45
-2.63917e-82
-4.58298e-67
-1.46937e-39
1.83671e-40
-1.83671e-40
4.59177e-41
-1.46937e-39
5.87747e-39
-2.93874e-39
5.87747e-39
2.0663e-40
1.83205e-62
-1.46937e-39
-4.6242e-63
1.10203e-39
7.34684e-40
-4.8742e-66
-9.18355e-40
-9.19212e-67
-4.4081e-39
2.94161e-40
9.18355e-41
7.34684e-40
1.46937e-39
1.46937e-39
2.2118e-64
5.73972e-42
4.59177e-41
-3.67342e-40
4.59177e-41
2.29589e-41
4.59177e-41
-2.29589e-41
3.67342e-40
-3.67342e-40
1.14794e-41
2.75506e-40
1.83671e-40
9.63531e-66
5.73972e-42
2.86986e-42
-7.17465e-43
7.17465e-43
-1.14322e-70
-7.17465e-43
1.14794e-41
-4.59177e-41
2.86986e-41
4.59177e-41
3.56033e-70
-4.28349e-72
8.60958e-42
1.43493e-42
-2.86986e-42
-1.43493e-42
2.86986e-42
-2.86986e-42
7.17465e-43
-2.94201e-69
2.86986e-42
2.29589e-41
2.86986e-42
2.11997e-64
1.83671e-40
4.1326e-40
3.67342e-40
9.18355e-41
1.14794e-41
-2.29589e-41
-5.07338e-66
5.51013e-40
-1.83671e-40
3.96892e-63
7.34684e-40
-2.93874e-39
9.18355e-41
-1.12247e-64
-3.57405e-63
2.20405e-39
1.01417e-64
9.18355e-40
-7.34684e-40
1.83671e-40
-4.1326e-40
1.10203e-39
7.34684e-40
-2.93874e-39
1.46937e-39
-1.83671e-40
-3.43091e-66
-4.59177e-41
8.05308e-62
5.55659e-62
2.93874e-39
-9.18355e-41
1.55709e-65
-2.93874e-39
7.34684e-40
-3.44383e-41
-5.73972e-42
1.79457e-64
2.82119e-37
2.82119e-37
3.09892e-59
-3.00927e-36
1.84318e-35
3.76158e-37
-8.20321e-59
3.00927e-36
-1.20371e-35
-3.19734e-36
-3.51179e-37
-1.50331e-60
2.54313e-62
8.27548e-36
-1.12847e-36
2.35099e-38
-1.88079e-37
2.31063e-60
-9.40395e-38
6.56429e-63
1.03444e-36
-2.82119e-37
2.44503e-36
-2.63311e-36
-4.23178e-37
2.63311e-36
1.12847e-36
1.17549e-38
4.70198e-38
3.76158e-37
-1.97483e-36
-4.70198e-37
-7.52316e-37
-3.57544e-64
2.35099e-38
-1.41059e-37
9.40395e-38
-4.70198e-38
2.93874e-39
-1.46937e-38
1.46937e-38
1.28566e-62
-7.56724e-38
-1.41059e-37
3.52648e-38
-3.52648e-38
1.76324e-38
-2.93874e-39
2.93874e-39
2.05712e-38
2.93874e-39
-2.35099e-38
-1.76324e-38
-2.35099e-38
-1.64569e-37
4.39468e-64
1.76324e-38
-3.52648e-38
-2.93874e-38
-2.00348e-63
-6.20073e-37
1.08734e-61
1.88079e-37
5.20156e-37
-1.88079e-37
-5.45429e-36
3.76158e-37
-7.52316e-37
-3.76158e-37
-2.25695e-36
-5.26621e-36
3.76158e-37
-7.52316e-37
3.76158e-37
3.76158e-37
2.25695e-36
2.39801e-36
-1.50463e-36
5.64237e-37
-1.50463e-36
1.26013e-35
6.01853e-36
-7.52316e-37
-7.52316e-37
-5.45429e-36
3.76158e-37
-4.70198e-37
8.34798e-64
1.50463e-36
-1.05324e-35
7.52316e-36
1.50463e-36
-6.01853e-36
-2.73686e-58
-1.50463e-36
-1.52814e-36
7.52316e-37
-1.37753e-40
-1.88079e-37
-4.81482e-35
7.70372e-34
4.13236e-57
-3.85186e-34
-5.77779e-34
-1.54074e-33
-7.70372e-34
-2.31112e-33
5.77779e-34
7.70372e-34
-4.50624e-60
3.4509e-60
-4.81482e-35
1.54074e-33
4.81482e-35
9.62965e-35
1.54074e-33
-9.62965e-34
7.70372e-34
4.81482e-35
-1.92593e-34
-3.46667e-33
1.31068e-57
4.81482e-34
-2.40741e-35
7.70372e-34
-4.2519e-59
4.81482e-35
4.09978e-58
-1.92593e-34
1.92593e-34
-1.92593e-34
-2.80838e-59
-4.5139e-36
-1.92593e-34
9.62965e-35
1.44445e-34
1.95602e-35
-2.88889e-34
2.40741e-35
6.01853e-36
-2.40741e-34
3.41649e-61
-1.80556e-35
3.00927e-36
4.5139e-36
5.64237e-37
-9.40395e-38
-1.17403e-64
-4.89006e-36
-2.40741e-35
1.47111e-60
-3.61112e-35
1.20371e-35
-2.40741e-35
9.0278e-36
-4.81482e-35
-1.44445e-34
4.81482e-34
-1.31555e-58
-2.40741e-35
4.81482e-35
8.68925e-35
9.62965e-35
-3.37038e-34
-1.92593e-34
9.62965e-35
1.15556e-33
9.62965e-35
2.91899e-34
-2.88889e-34
-5.86198e-58
-1.50463e-36
7.52316e-37
7.52316e-37
3.20964e-56
-5.77779e-34
-1.92593e-34
-1.92593e-34
-7.70372e-34
7.70372e-34
1.54074e-33
-1.92593e-34
3.61112e-35
4.27916e-57
7.70372e-34
3.85186e-34
-1.53594e-58
-3.85186e-33
2.95439e-56
1.09132e-55
3.85186e-34
-3.79167e-34
-2.31112e-33
8.66668e-34
9.62965e-35
2.40741e-34
-9.61312e-61
1.20371e-35
-3.85186e-34
7.70372e-33
3.08149e-33
3.08149e-33
-9.71484e-54
8.62817e-32
-2.15704e-32
1.2326e-32
3.69779e-32
-3.08149e-33
7.70372e-34
-4.03977e-55
-7.39557e-32
1.54074e-33
4.54313e-58
1.54074e-33
6.16298e-33
-1.2326e-32
-2.31112e-33
3.00927e-36
7.51893e-58
1.2874e-53
-3.8193e-57
-2.6963e-33
-8.9721e-59
1.84889e-32
3.08149e-33
-8.08872e-57
-1.2326e-32
-1.2326e-32
-7.70372e-34
1.92593e-34
-5.90861e-60
1.92593e-34
-6.16298e-33
-4.62223e-33
1.54074e-33
9.73197e-58
-1.84889e-32
-1.92593e-34
9.24446e-33
-5.3926e-33
-3.32025e-59
-7.70372e-34
3.85186e-33
-5.12519e-58
3.85186e-34
9.62965e-35
9.62965e-35
1.92593e-34
-3.85186e-34
-7.70372e-34
-9.62965e-35
1.92593e-34
-1.92593e-33
5.3926e-33
-4.62223e-33
1.54074e-33
-1.54074e-33
5.3926e-33
-4.90105e-57
2.31112e-33
9.24446e-33
6.16298e-33
-1.31359e-57
4.62223e-33
-6.16298e-33
2.46519e-32
-1.40786e-56
-4.31408e-32
-3.08149e-33
2.01756e-57
-8.66668e-34
-1.92593e-34
3.08149e-33
-1.2326e-32
9.24446e-33
4.65803e-55
-1.92593e-34
-3.08149e-32
1.2326e-32
-2.77334e-32
1.54074e-33
-1.50463e-36
1.54074e-33
1.69482e-32
3.69779e-32
4.57027e-54
-9.71169e-55
-4.6266e-55
-2.46519e-32
2.83617e-55
3.08149e-33
6.16298e-32
7.70372e-33
-3.08149e-33
1.25185e-33
9.89157e-60
-1.4065e-56
-6.16298e-33
1.54074e-33
-5.99822e-55
6.16298e-33
2.46519e-32
1.2326e-31
-5.95936e-54
6.16298e-33
-3.85186e-34
3.85186e-34
4.04085e-54
5.5561e-53
-1.72563e-31
3.08149e-33
-4.62223e-33
-3.08149e-33
1.47911e-31
-7.39557e-32
1.97215e-31
-6.16298e-33
4.47476e-57
2.46519e-32
3.08149e-33
1.54074e-33
-1.54074e-33
-1.97215e-31
8.62817e-32
2.46519e-32
6.16298e-32
-6.16298e-33
-1.2326e-32
7.14339e-54
1.54074e-33
-4.81482e-35
4.33334e-34
-4.81482e-35
7.70372e-34
-6.16298e-33
1.54074e-32
-5.54668e-32
7.70372e-34
-2.09586e-59
-9.62965e-35
5.29706e-59
-9.24446e-33
-9.24446e-33
1.38667e-32
-1.63704e-33
-6.91538e-62
-2.6963e-33
1.92593e-34
3.08149e-33
-2.21973e-61
8.1702e-59
6.16298e-32
3.08149e-33
1.84889e-32
-9.24446e-33
-6.77927e-32
2.46519e-32
-1.54074e-33
2.46519e-32
2.46519e-32
-1.54074e-33
-7.70372e-34
6.34913e-55
-2.09541e-31
-1.30963e-32
-3.69779e-32
1.2326e-31
-4.62223e-33
6.16298e-33
-1.20371e-35
-1.11706e-59
1.2426e-55
-2.46519e-31
1.2326e-32
4.93038e-32
1.20178e-31
-9.59716e-54
8.62817e-32
4.93038e-32
3.85186e-33
1.54074e-33
-3.63273e-54
1.2326e-32
1.53221e-52
-6.16298e-32
6.16298e-33
-1.2326e-32
1.78726e-31
-2.28953e-56
-3.08149e-33
3.69779e-32
-7.39557e-32
8.62817e-32
-1.84889e-32
2.27278e-58
-1.92593e-32
-1.2326e-32
-1.10934e-31
-8.62817e-32
1.36311e-53
-7.39557e-32
1.2326e-32
2.46519e-31
1.5446e-31
6.16298e-33
-3.57764e-56
8.24298e-32
-1.10934e-31
-3.08149e-33
-3.08149e-33
1.60237e-31
6.16298e-33
-2.46519e-32
1.664e-31
1.10934e-31
-1.69482e-32
7.16792e-59
6.54816e-33
-9.24446e-33
-2.46519e-32
-2.31112e-33
2.46519e-32
-5.85483e-32
-3.9289e-32
1.35585e-31
-6.16298e-33
-3.08149e-32
7.08742e-32
-7.70372e-34
1.92593e-33
1.96445e-32
-8.32002e-32
1.30963e-32
3.85186e-33
-1.40696e-58
-6.77927e-32
7.70372e-33
3.85186e-34
-9.14817e-34
-1.19988e-61
-1.39351e-60
4.81482e-34
3.65927e-33
3.98427e-33
-9.67212e-61
-1.54074e-33
9.62965e-35
-9.62965e-35
8.1852e-34
-2.29958e-57
1.85052e-56
-1.25519e-56
3.69779e-32
-3.08149e-33
-7.70372e-32
-3.69779e-32
-7.22224e-35
-4.62223e-32
-1.54074e-33
-8.26322e-62
3.63663e-55
-3.08149e-32
-3.69779e-32
-8.62817e-32
1.2326e-32
3.69779e-32
-7.39557e-32
9.24446e-33
-1.69482e-32
-4.62223e-33
-4.44177e-54
2.21867e-31
-2.46519e-32
-6.16298e-33
-1.97215e-31
-3.69779e-32
-2.21867e-31
-1.2326e-32
-3.69779e-32
1.97215e-31
-8.21619e-52
-9.75374e-55
2.83497e-31
6.90253e-31
4.93038e-32
-3.9443e-31
1.2326e-32
-1.51632e-60
-2.21874e-56
-2.21867e-31
5.38297e-32
4.93038e-32
-3.69779e-32
-7.70372e-34
-6.16298e-33
-1.97215e-31
-7.39557e-32
9.86076e-32
3.99168e-51
-4.93038e-32
6.16298e-33
-9.86076e-32
-1.97215e-31
4.93038e-31
-3.7954e-54
-6.16298e-33
2.76627e-51
-9.86076e-32
-5.08823e-56
9.86076e-32
-2.23043e-56
-9.86076e-32
6.16298e-33
-1.62179e-55
-9.62965e-35
-1.50463e-36
7.70372e-34
1.2326e-31
7.39557e-32
1.47911e-31
1.47911e-31
-2.21195e-52
-3.1247e-55
-2.46519e-32
1.47911e-31
2.46519e-32
4.62223e-33
-3.5729e-53
7.70372e-34
2.45556e-33
-7.39557e-32
-3.69779e-32
-2.93256e-53
-9.56886e-57
2.49562e-57
5.23006e-57
-1.2326e-32
-3.33225e-57
1.26049e-57
-1.2326e-32
-5.65815e-58
3.08149e-33
8.16549e-57
-5.46239e-60
-5.81431e-57
-7.22224e-34
-6.16298e-33
1.92593e-34
-6.16298e-33
-1.64096e-56
5.77779e-34
1.2326e-32
-4.93038e-32
7.95204e-56
1.2326e-32
-2.46519e-32
-3.08149e-33
4.81482e-35
-3.79858e-55
4.93038e-32
7.39557e-32
-3.51168e-52
-9.86076e-32
-6.16298e-33
9.86076e-32
-7.67615e-53
-9.86076e-32
1.06133e-55
-6.16298e-33
-1.97215e-31
1.2326e-32
1.66642e-51
-1.2326e-32
-3.82453e-51
3.9443e-31
-4.01126e-51
-2.86353e-56
6.16298e-33
-9.24446e-33
-3.69779e-32
1.84889e-32
9.24446e-33
-3.08149e-32
-5.91646e-31
-3.08149e-32
4.05312e-51
1.30419e-55
2.80945e-58
3.85186e-34
3.8052e-54
-3.14103e-52
-3.79994e-55
-6.01853e-36
2.45157e-54
3.53815e-54
-9.86076e-32
-9.86076e-32
-8.71568e-51
-1.97215e-31
-1.02134e-50
-1.54074e-33
-3.08149e-33
1.97215e-31
9.1894e-51
-1.97215e-31
9.86076e-32
-9.24446e-33
1.67285e-54
-9.86076e-32
9.24446e-33
2.95823e-31
-6.16298e-33
9.24446e-33
-1.13387e-61
-1.20371e-35
-9.62965e-35
-9.86076e-32
4.40764e-56
4.93038e-32
-5.8842e-52
9.86076e-32
9.86076e-32
-9.62965e-35
4.92667e-52
-6.20041e-52
6.57222e-52
2.46519e-32
-4.93038e-32
-4.93038e-32
-2.87035e-56
7.32255e-57
-1.44445e-33
-4.93038e-32
-7.39557e-32
1.2326e-32
7.76866e-54
-8.29684e-54
-9.0143e-54
8.11869e-54
-1.14564e-54
1.07293e-55
-1.92593e-34
-1.92593e-34
-6.16298e-33
-1.46382e-55
3.12964e-34
-1.92593e-34
4.93038e-32
-2.46519e-32
-7.70372e-34
1.92593e-34
-3.83608e-54
1.92593e-34
1.71865e-57
4.81482e-35
3.58167e-56
6.65741e-57
6.53958e-52
-2.41585e-51
-2.49707e-55
-9.86076e-32
-1.97215e-31
-9.86076e-32
-6.86572e-52
-1.97215e-31
1.97215e-31
1.70585e-55
-7.70372e-34
-4.53664e-52
4.96313e-56
3.9443e-31
-1.54074e-33
-1.97215e-31
-2.31112e-33
-1.54074e-33
-2.54645e-56
1.97215e-31
9.54383e-51
-1.97215e-31
1.54074e-33
-1.97215e-31
-1.97215e-31
-3.10606e-53
3.9443e-31
-3.91352e-51
-3.90217e-56
1.54074e-33
1.07377e-50
9.86076e-32
1.54074e-33
3.75235e-62
-9.62965e-35
2.08025e-55
2.95093e-52
1.97215e-31
-7.70372e-34
8.07576e-55
1.64288e-50
-1.97215e-31
9.62965e-35
-1.92593e-34
1.55164e-50
-1.17427e-50
3.85186e-34
-1.47337e-50
-1.97215e-31
3.85186e-34
1.03642e-49
2.95823e-31
-1.36463e-50
1.19003e-50
-9.24446e-33
-6.01853e-36
6.16298e-33
-9.44965e-51
-9.12171e-51
9.63682e-51
-9.86076e-32
-2.94532e-34
-1.01113e-51
-1.47911e-31
-9.62965e-35
9.78408e-56
2.28704e-34
-7.7716e-51
7.66325e-51
-8.84371e-52
1.57083e-52
3.08149e-33
2.68385e-57
-4.93038e-32
4.93038e-32
8.58214e-52
-1.5641e-53
2.46519e-32
1.17245e-53
-7.85526e-57
-1.67298e-54
1.78467e-54
-3.00927e-36
2.47008e-55
-6.90814e-61
2.57469e-56
-1.22502e-55
-7.70372e-34
-1.60024e-53
-1.09733e-53
-2.46519e-32
7.70372e-34
-8.29661e-59
4.93038e-32
1.36213e-52
3.1104e-57
2.14633e-57
1.07757e-51
1.93764e-55
-1.11238e-51
-1.97215e-31
2.97405e-54
-3.77957e-54
-1.97215e-31
1.21567e-51
3.94842e-53
-3.73874e-52
-1.42301e-50
-1.2326e-32
-2.30894e-55
1.97215e-31
-3.84983e-55
-3.9443e-31
-3.08149e-33
5.77779e-34
-1.88026e-53
-3.9443e-31
7.15779e-53
-1.24691e-50
-7.70372e-34
1.70447e-53
3.9443e-31
7.88861e-31
-3.3413e-54
-3.00036e-56
9.87953e-51
-1.97215e-31
-3.85186e-34
3.85186e-34
-1.66927e-50
3.9443e-31
-3.85186e-34
3.85186e-34
-2.40741e-35
-8.08546e-55
1.51997e-55
-9.78057e-52
-2.8506e-50
-1.97215e-31
-3.08149e-33
-1.34815e-33
1.92593e-34
-2.0463e-34
-1.97215e-31
-1.86837e-49
1.81364e-49
1.8053e-50
-1.14902e-53
1.59498e-49
-9.86076e-32
-9.86076e-32
-1.77418e-50
-1.56726e-50
8.56376e-58
1.92593e-34
9.86076e-32
-1.97215e-31
-2.65768e-54
-1.02219e-49
2.41892e-55
1.31696e-50
-6.16298e-33
1.97215e-31
6.16298e-33
-1.20301e-50
1.34411e-51
1.11052e-50
-1.63976e-54
-6.85271e-58
-1.39329e-51
4.1998e-57
-8.57012e-56
-1.34308e-51
5.0448e-57
2.94868e-56
4.93038e-32
1.88485e-53
-3.52736e-58
2.0463e-34
-2.00667e-59
8.33063e-57
3.02865e-54
-6.16298e-33
1.20371e-35
3.14125e-59
2.46519e-32
2.50515e-54
-1.92593e-34
-2.09728e-53
-3.85186e-34
1.74956e-52
1.95595e-56
9.86076e-32
-4.93038e-32
-1.92593e-34
-1.08236e-54
3.08149e-33
-7.22224e-35
-7.22224e-35
-3.08149e-33
-9.86076e-32
2.12835e-55
1.43415e-51
-1.2326e-32
1.53143e-50
2.88889e-34
1.97215e-31
-1.54074e-33
-1.54074e-33
1.97215e-31
-3.08149e-33
-6.16298e-33
2.07587e-50
-2.40741e-35
-3.9443e-31
-7.97327e-54
-7.88861e-31
-1.06861e-53
1.18329e-30
3.9443e-31
7.88861e-31
3.9443e-31
1.99771e-49
1.54074e-33
-2.1796e-49
2.34005e-50
-5.73241e-56
-1.32281e-53
3.08149e-33
-2.34862e-50
3.9443e-31
-1.97215e-31
-3.45877e-57
3.00927e-36
-1.68364e-55
3.9443e-31
3.08149e-33
3.47386e-50
-3.08149e-33
-3.9443e-31
2.65834e-49
-8.27646e-56
-5.54924e-54
5.91646e-31
3.08149e-33
-2.86872e-55
-7.70372e-34
-1.94813e-49
3.85186e-34
-1.48419e-48
1.97215e-31
6.16298e-33
5.08367e-54
8.4993e-58
1.84432e-50
9.86076e-32
-1.86252e-50
1.39347e-49
-1.89839e-56
9.86076e-32
-7.70372e-34
-9.86076e-32
1.44777e-50
1.72031e-50
-6.16298e-33
-1.55109e-51
-1.7123e-51
-1.83687e-51
-6.66731e-55
-4.93038e-32
1.78387e-51
-4.93038e-32
1.20371e-35
-2.00398e-52
-3.11686e-56
-3.08149e-33
2.36605e-52
-4.93038e-32
3.85186e-34
-2.58668e-53
1.2326e-32
4.08027e-55
4.81482e-35
-2.2428e-60
1.2326e-32
1.92593e-34
-2.46519e-32
2.41913e-53
-7.70372e-34
4.93038e-32
4.93038e-32
4.93038e-32
1.92593e-34
2.29268e-55
-9.86076e-32
-1.57778e-51
1.142e-54
9.86076e-32
6.74075e-34
5.99331e-50
-1.44663e-55
8.16889e-54
1.80412e-50
1.97215e-31
1.81048e-50
-3.08149e-33
6.16298e-33
-6.49347e-56
-2.09842e-50
-5.93924e-54
-1.54074e-33
-1.74047e-50
1.54074e-33
-1.6247e-49
1.85175e-49
1.73187e-48
-7.88861e-31
7.88861e-31
-1.2326e-32
2.00271e-49
6.16298e-33
-3.9443e-31
2.59271e-49
-7.70372e-34
-1.51162e-53
-4.53104e-53
-3.01322e-49
3.83613e-50
-1.97215e-31
3.61049e-50
-3.8938e-50
3.23936e-56
6.16298e-33
2.5679e-56
4.28942e-50
3.60233e-49
-3.58914e-49
3.26663e-54
2.65664e-48
1.97215e-31
-1.54074e-33
-6.18284e-56
-2.9423e-49
4.76801e-54
1.20371e-35
6.48971e-55
1.97215e-31
7.18886e-54
1.93222e-49
-1.54074e-33
-2.15203e-49
-3.85186e-34
4.81482e-35
-1.39702e-55
-3.15837e-50
-9.86076e-32
9.86076e-32
8.47412e-58
3.08149e-33
9.86076e-32
-1.15633e-54
-1.8205e-50
9.86076e-32
-3.08149e-33
1.25808e-54
-1.54074e-33
-2.39934e-54
-4.93038e-32
-2.02795e-51
-3.85186e-34
4.93038e-32
-1.76103e-58
1.66672e-58
7.70372e-34
7.70372e-34
-4.93038e-32
1.92593e-34
2.95601e-53
-1.2326e-32
3.85186e-34
3.08149e-33
-1.92593e-34
4.81482e-35
6.16298e-33
-1.33024e-58
3.55814e-53
-2.81638e-52
1.82938e-58
-1.92593e-34
2.64782e-52
-4.93038e-32
-5.77779e-34
-4.93038e-32
-9.86076e-32
-1.02277e-55
-2.60728e-51
-4.93038e-32
4.93038e-32
-1.8269e-50
3.98435e-55
-1.93804e-56
1.97215e-31
-2.31112e-33
-1.97215e-31
1.2326e-32
-9.86076e-32
8.45584e-53
1.97215e-31
-4.65113e-53
7.0142e-54
5.13109e-53
1.2326e-32
-1.99293e-49
-1.97215e-31
-2.62182e-49
-3.9443e-31
-3.08149e-33
3.9443e-31
4.62223e-33
-3.9443e-31
6.16298e-33
3.9443e-31
1.57772e-30
-1.2326e-32
3.9443e-31
3.9443e-31
1.97215e-31
1.33611e-33
7.70372e-34
4.90657e-51
-4.99973e-57
4.61511e-53
1.92593e-34
-1.97215e-31
-9.86076e-32
3.08149e-33
6.16298e-33
7.88861e-31
3.08149e-33
3.85186e-34
-4.33334e-34
3.28847e-49
-3.14736e-49
-3.08149e-33
2.03124e-53
-1.97215e-31
7.22142e-54
3.49019e-53
1.8631e-56
1.97215e-31
6.16298e-33
3.9443e-31
6.16298e-33
6.16298e-33
-1.20371e-34
2.40741e-35
-3.85186e-34
1.95017e-49
2.26354e-50
-6.84714e-58
6.60771e-55
-2.31435e-50
-3.85186e-34
7.52316e-37
7.70372e-34
7.1814e-50
-2.65742e-51
2.40741e-35
-4.93038e-32
4.93038e-32
1.54074e-33
-2.49592e-51
9.86076e-32
6.34802e-57
-1.98958e-59
1.88192e-56
-3.15265e-52
-1.2326e-32
-1.19119e-58
6.16298e-33
1.61384e-58
-9.24446e-33
-6.16298e-33
-1.45706e-57
4.93038e-32
2.79111e-52
-1.92593e-34
9.87352e-57
-2.5143e-55
-9.86076e-32
-2.84756e-51
2.20145e-50
-7.8272e-55
3.85287e-54
3.08149e-33
1.91616e-54
-2.1742e-50
3.85186e-34
1.08381e-53
-1.54074e-33
1.90152e-50
3.08149e-33
1.54074e-33
-2.28352e-49
-9.86076e-32
-2.40173e-49
-2.14557e-49
2.51515e-49
-4.18578e-55
1.22361e-52
-1.54074e-33
-1.97215e-31
2.86928e-49
1.97215e-31
1.2326e-32
-9.62965e-35
-3.08149e-33
-6.16298e-33
-3.51521e-49
-1.97215e-31
-1.97215e-31
-1.18329e-30
3.08149e-33
-3.08149e-33
-3.9443e-31
3.85186e-34
7.70372e-34
1.77376e-54
-9.62965e-35
2.31094e-59
-1.40949e-53
6.01524e-50
-9.86076e-32
3.2649e-54
-1.97215e-31
7.70372e-34
4.04112e-49
1.97215e-31
-4.08266e-49
9.51155e-59
-1.97215e-31
2.70382e-53
1.97215e-31
-3.9443e-31
3.08149e-33
-1.15556e-33
-1.92593e-34
3.85186e-34
1.97215e-31
-1.36915e-55
-2.79738e-49
-6.05816e-54
2.50517e-49
3.85186e-34
-2.16667e-34
-5.56784e-54
-3.9443e-31
9.43772e-55
8.36488e-55
-2.82671e-50
3.08149e-33
-9.86076e-32
6.54374e-57
2.42967e-50
9.86076e-32
1.92593e-34
1.54074e-33
1.08107e-55
-1.54074e-33
-3.08149e-33
-7.29224e-55
2.54702e-51
1.00445e-56
-3.86612e-52
3.81643e-52
-4.10773e-53
-5.01559e-53
1.20914e-57
-5.22767e-54
-1.38424e-57
-3.08149e-33
-1.65853e-57
-4.13909e-53
1.2326e-32
-3.86936e-52
1.60349e-58
-6.01853e-36
1.3885e-56
2.40561e-50
3.06537e-51
9.86076e-32
-3.00862e-54
-2.61645e-50
-4.93038e-32
-1.54074e-33
-2.73411e-50
8.37276e-55
-9.86076e-32
-2.99281e-50
9.86076e-32
-3.18927e-56
7.70372e-34
2.3162e-49
3.85186e-34
1.97215e-31
-2.46519e-32
-2.95431e-49
8.91775e-54
-1.97215e-31
1.54074e-33
-2.18702e-52
7.17301e-52
5.77779e-34
9.67155e-54
3.08149e-33
-1.97215e-31
1.32714e-54
1.97215e-31
-3.2341e-48
3.29399e-48
-7.81044e-52
-7.70372e-34
-1.97215e-31
1.97215e-31
-5.91646e-31
4.7674e-49
6.33462e-50
6.45358e-50
-3.66581e-56
-1.28031e-53
-5.46793e-49
5.91646e-31
-5.111e-49
4.98313e-49
7.70372e-34
7.70372e-34
3.9443e-31
-4.53021e-49
1.54074e-33
1.97215e-31
-9.4571e-59
-1.97215e-31
-3.81426e-49
-2.31742e-53
-2.6988e-48
-3.9443e-31
3.08149e-33
-3.05357e-49
-7.04732e-54
-7.40387e-54
1.97215e-31
-3.20395e-49
6.3779e-54
-1.97215e-31
-7.70372e-34
-2.88889e-34
3.08149e-33
2.03551e-56
1.97215e-31
2.31815e-50
-1.97215e-31
3.661e-56
-2.56197e-50
1.92593e-34
-2.40741e-35
-8.11674e-57
7.70372e-34
3.01665e-51
-1.54074e-33
2.9943e-51
-4.81482e-35
-4.81482e-35
4.93038e-32
-4.93038e-32
-5.59956e-57
3.12942e-56
-1.50463e-36
-9.62965e-35
5.29036e-62
-5.45998e-54
-1.92593e-34
4.74523e-53
4.81482e-35
-1.2326e-32
-9.23611e-57
-7.70372e-34
-1.54074e-33
2.46519e-32
-3.45973e-51
-4.93038e-32
2.66186e-50
2.68423e-50
1.15724e-55
4.93038e-32
3.55736e-53
6.28595e-54
-4.93038e-32
-2.34339e-53
-4.93038e-32
-3.71529e-54
-2.716e-49
-7.30244e-53
2.29257e-55
9.86076e-32
-2.54323e-55
-5.77779e-34
2.40741e-35
3.08149e-33
-4.81482e-35
-3.08149e-33
9.86076e-32
-3.21287e-49
-3.08149e-33
-1.97215e-31
1.92593e-34
-7.70372e-34
-4.03727e-49
-1.97215e-31
1.97215e-31
1.97215e-31
1.97215e-31
1.97215e-31
-5.07511e-49
4.9159e-49
-3.9443e-31
1.97215e-31
-9.36124e-54
-2.40741e-35
-6.16298e-33
6.90332e-50
1.97215e-31
4.52936e-48
-5.30512e-49
1.2914e-55
-4.19779e-56
-4.84599e-49
3.83784e-48
1.54074e-33
-3.85186e-34
-7.70372e-34
-1.97215e-31
3.85186e-34
-1.97215e-31
1.97215e-31
-9.86076e-32
-7.70372e-34
2.88611e-48
-3.26536e-49
-1.97215e-31
3.27667e-49
-3.08149e-33
9.20699e-54
9.86076e-32
3.85186e-34
3.08149e-33
-4.81482e-35
-2.27338e-54
9.86076e-32
1.97215e-31
-2.36087e-49
-2.96409e-50
-9.62965e-35
-1.54074e-33
4.93038e-32
-9.86076e-32
1.03157e-55
-2.61963e-50
-1.11204e-55
1.04817e-55
-2.46519e-32
7.70372e-34
2.46519e-32
-1.2326e-32
5.41668e-35
4.15675e-52
-4.54416e-59
2.82119e-37
-1.20371e-35
-3.08149e-33
-5.25489e-53
-4.29229e-57
-1.58964e-57
-1.72945e-55
-3.85186e-34
1.50463e-36
5.62836e-60
-9.62965e-35
3.85186e-34
-3.09285e-51
-9.86076e-32
-4.93038e-32
-1.58518e-54
4.93038e-32
2.47755e-49
-7.70372e-34
3.85186e-34
-4.93038e-32
9.62965e-34
-2.65218e-49
1.37223e-33
4.41398e-59
-3.08149e-33
-6.16298e-33
3.08149e-33
6.63031e-60
2.48073e-55
-9.86076e-32
-7.70372e-34
-4.13842e-57
3.08149e-33
1.54074e-33
3.11443e-48
-1.03564e-51
-2.13705e-54
-3.45138e-48
-1.54074e-33
3.643e-48
-5.09231e-53
5.75354e-52
4.90922e-49
1.43474e-47
5.45735e-49
5.54054e-49
5.46333e-49
1.97215e-31
1.96984e-53
5.81106e-60
1.89769e-53
4.81482e-35
2.31112e-33
-4.79466e-48
6.05221e-52
-3.85186e-34
7.70372e-34
4.177e-48
-1.97215e-31
-1.54074e-33
-1.72712e-59
0
3.8169e-53
-7.70372e-34
2.41723e-52
1.97215e-31
1.97215e-31
1.97215e-31
-2.84322e-48
9.42684e-48
9.86076e-32
7.22224e-34
9.61363e-54
-8.5588e-54
-9.86076e-32
-3.85186e-34
9.86076e-32
2.78327e-49
-2.69986e-49
3.85186e-34
7.70372e-34
8.47705e-49
3.01578e-50
2.40741e-35
-4.93038e-32
-2.86688e-50
-2.58603e-50
-9.59704e-55
4.93038e-32
-2.40741e-35
4.24875e-51
2.46519e-32
-1.31623e-56
3.22908e-51
9.62965e-35
-1.92593e-34
-1.2326e-32
4.14125e-59
-4.43561e-67
1.20371e-35
3.08149e-33
-6.16298e-33
2.40741e-35
-1.92593e-34
1.2326e-32
1.08808e-56
-4.81482e-35
-4.81482e-35
8.52084e-56
3.61197e-51
-9.62965e-35
2.78478e-50
-2.68178e-50
-4.93038e-32
9.62965e-35
1.54074e-33
-2.31112e-33
7.70372e-34
-3.08149e-33
-9.86076e-32
-2.88889e-34
2.17479e-48
8.38931e-54
3.08149e-33
-3.022e-49
1.54074e-33
1.92593e-34
-1.54074e-33
1.97215e-31
1.98848e-54
-2.34719e-52
-1.10869e-53
2.0289e-52
1.97215e-31
1.97215e-31
1.75703e-54
2.84111e-47
9.24446e-33
1.97215e-31
-3.9251e-48
-1.97215e-31
1.92593e-34
-4.23959e-48
-7.70372e-34
-5.27128e-49
6.92953e-53
5.7409e-53
-6.28173e-49
-7.70372e-34
-2.07798e-53
8.13532e-50
-3.85186e-34
9.86076e-32
1.97215e-31
3.08149e-33
-4.69107e-48
1.97215e-31
-1.97215e-31
-1.54074e-33
1.54074e-33
-7.72623e-62
1.14701e-52
-3.51198e-48
3.59944e-48
1.97215e-31
3.9443e-31
2.21177e-52
-6.16298e-33
-2.32415e-47
1.97215e-31
1.97215e-31
-1.09688e-53
7.48108e-53
-1.97215e-31
-1.92593e-34
3.08149e-33
-1.97215e-31
2.97879e-49
-2.90675e-56
2.25713e-49
-2.42978e-49
9.86076e-32
-9.86076e-32
-2.46876e-49
9.89634e-56
9.86076e-32
-1.92593e-34
-9.86076e-32
4.93038e-32
2.46519e-32
7.70372e-34
-9.62965e-35
2.46519e-32
1.92593e-34
4.32052e-52
1.92593e-34
1.65501e-57
-3.76158e-37
-1.03187e-62
6.01853e-36
9.62965e-35
1.15338e-56
-6.16298e-33
4.80617e-52
8.19893e-56
-3.46189e-51
-1.2326e-32
-3.66051e-51
1.92593e-34
-9.4205e-57
-2.46519e-32
1.13932e-55
2.72313e-50
-1.54074e-33
-2.50368e-49
-9.86076e-32
9.59493e-56
3.85186e-34
-2.43659e-49
4.93038e-32
4.69343e-52
-1.54074e-33
2.40741e-35
1.65887e-53
-4.93038e-32
-9.86076e-32
-1.15556e-33
-6.6351e-52
1.2326e-32
9.86076e-32
-1.20371e-35
9.86076e-32
-3.30303e-48
-2.51616e-52
1.95294e-52
-1.97215e-31
3.08149e-33
9.86076e-32
3.24738e-47
4.10665e-48
-1.22256e-54
2.08325e-52
-1.85223e-54
-5.00329e-48
-1.54074e-33
6.5752e-49
9.86076e-32
-3.85186e-34
-1.3237e-55
-6.75633e-49
-9.86076e-32
-9.86076e-32
-3.08149e-33
-1.97215e-31
4.67243e-48
-1.97215e-31
1.97215e-31
-1.20371e-34
-6.01853e-36
2.02065e-54
4.09374e-48
-1.97215e-31
7.70372e-34
-1.29073e-52
3.9443e-31
3.11482e-48
1.97215e-31
2.64964e-48
3.85186e-34
3.9443e-31
1.08357e-53
-1.20371e-35
3.08149e-33
-3.85186e-34
2.72917e-49
-3.08149e-33
3.08149e-33
3.0434e-49
-8.68136e-57
-3.32927e-55
1.47911e-31
2.06798e-48
3.08029e-50
3.10162e-50
2.98453e-50
-1.54074e-33
-2.46519e-32
-9.86076e-32
-8.4405e-55
3.28055e-51
3.85186e-34
-2.46519e-32
3.70741e-51
-2.65421e-57
5.32738e-58
4.81482e-35
4.81482e-35
-9.62965e-35
1.54074e-33
-9.62965e-35
4.3578e-52
6.16298e-33
2.40741e-35
1.2326e-32
3.76408e-51
-9.62965e-35
-3.57645e-51
-2.46519e-32
4.65397e-55
2.91863e-50
2.46519e-32
2.62425e-50
-1.2326e-32
3.23818e-50
-2.46519e-32
3.00927e-36
4.93038e-32
-3.7417e-53
-4.81482e-35
2.46519e-32
3.85186e-34
-4.0253e-54
4.93038e-32
-2.94121e-49
-4.93038e-32
2.80584e-52
3.85186e-34
1.15473e-54
4.93038e-32
-6.88112e-53
-3.92082e-51
-9.86076e-32
-9.26066e-54
-9.86076e-32
-8.69027e-52
-7.70372e-34
-5.9964e-52
-4.05168e-48
1.97215e-31
-8.18109e-53
7.70079e-60
-7.70372e-34
4.62223e-33
7.70372e-34
-6.44726e-49
-3.85186e-34
1.16624e-63
3.08149e-33
6.79309e-49
6.64609e-49
-9.86076e-32
-2.6963e-33
-3.08149e-33
7.70372e-34
-1.54074e-33
3.59117e-47
-1.54074e-33
1.54074e-33
-1.97215e-31
-4.03165e-48
-2.95823e-31
-3.08149e-33
-6.16298e-33
-1.97215e-31
-1.97215e-31
-3.03534e-48
6.16298e-33
-7.70372e-34
1.97215e-31
-8.94195e-53
2.66969e-52
-9.5364e-54
9.75656e-54
-4.93038e-32
-4.93038e-32
8.94134e-54
-2.17607e-48
2.93195e-49
-4.79874e-54
-7.70372e-34
-2.45928e-49
-9.62965e-35
-2.70127e-50
-7.70372e-34
2.94915e-50
-2.51416e-56
9.86076e-32
2.96722e-50
-2.77322e-50
3.45673e-51
-2.45823e-56
-2.46519e-32
4.27464e-58
-4.20679e-52
-1.76119e-57
1.39256e-58
-1.54754e-57
3.3478e-61
-4.27125e-59
6.16298e-33
5.24434e-57
-6.16298e-33
3.39922e-51
-7.22224e-35
-6.16298e-33
7.22224e-35
-1.2326e-32
2.97355e-50
4.93038e-32
-1.2326e-32
-1.2326e-32
2.78552e-50
-9.52906e-56
-7.70372e-34
1.54074e-33
4.93038e-32
4.67725e-55
-7.70372e-34
-4.81482e-35
-4.93038e-32
-9.62965e-35
2.11624e-48
1.61475e-53
4.93038e-32
-9.86076e-32
-9.86076e-32
1.22395e-52
9.62965e-35
7.70372e-34
2.26561e-47
-4.35299e-52
5.77779e-34
9.86076e-32
3.46805e-48
9.86076e-32
1.00003e-54
-3.85186e-34
9.86076e-32
9.86076e-32
3.85186e-34
1.07942e-54
-9.86076e-32
-5.27679e-48
-7.70372e-34
-7.39557e-32
1.40506e-56
-1.54074e-33
-8.26517e-50
-3.1979e-53
-1.97215e-31
-9.86076e-32
4.89714e-48
7.70372e-34
3.9443e-31
-3.08149e-33
-4.40034e-48
-1.62077e-54
7.70372e-34
1.07439e-54
3.84751e-48
-1.01042e-53
-2.40741e-35
2.14956e-52
-9.86076e-32
-3.08149e-33
-2.56181e-53
-3.73265e-53
-3.08149e-33
-7.96331e-53
3.08149e-33
9.31459e-54
-6.71884e-53
-2.2035e-48
2.7297e-49
2.40741e-35
2.59344e-49
-4.93038e-32
4.93038e-32
9.62965e-35
-1.20371e-35
3.76158e-37
-3.18946e-55
-2.46519e-32
-2.74057e-50
-1.2326e-32
2.78624e-50
-1.2326e-32
2.46519e-32
-3.1745e-51
7.66414e-58
6.16298e-33
-1.80556e-35
4.40052e-52
4.81482e-35
1.54074e-33
-1.50463e-36
5.89407e-54
-1.0484e-57
-4.81482e-35
-1.54074e-33
6.16298e-33
-2.40741e-35
-9.70235e-56
2.56518e-50
2.22792e-50
2.40741e-35
1.90571e-54
6.16298e-33
-2.89642e-35
2.40741e-35
-9.62965e-35
6.01326e-54
-5.919e-54
9.5347e-54
2.01057e-49
2.4799e-53
6.04022e-53
-9.62965e-35
-2.16787e-49
5.81658e-56
-1.92593e-34
-9.62965e-35
4.93038e-32
-2.07821e-48
2.13268e-48
2.46519e-32
-1.8775e-52
-6.63196e-55
-2.52399e-48
4.93038e-32
2.83731e-48
7.70372e-34
-4.93038e-32
3.18339e-48
7.70372e-34
7.70372e-34
4.09284e-48
-4.16005e-48
9.62965e-35
3.7066e-53
-9.9091e-53
-9.86076e-32
6.7142e-49
4.93038e-32
-1.92593e-34
2.55128e-54
2.16667e-34
7.88416e-55
-9.86076e-32
9.86076e-32
-9.86076e-32
-7.70372e-34
-9.86076e-32
1.97215e-31
3.39001e-47
1.54074e-33
3.30815e-53
-9.86076e-32
1.97215e-31
-1.92593e-34
-3.08149e-33
-2.89018e-48
-3.08149e-33
6.16298e-33
-3.08237e-48
-9.86076e-32
2.55493e-48
7.99273e-53
-1.54074e-33
7.03253e-53
-3.08149e-33
-9.86076e-32
1.54074e-33
-2.03778e-48
3.21996e-55
-1.54544e-55
-2.46519e-32
2.44488e-57
6.76211e-54
-6.9037e-54
2.12746e-49
1.2326e-32
-6.01853e-36
1.2326e-32
-1.2326e-32
2.53582e-50
-2.45022e-50
-3.58325e-56
-9.62965e-35
-1.03381e-56
8.49216e-56
-4.81482e-35
1.58041e-57
-3.8739e-53
1.43418e-58
-4.43936e-54
3.11264e-52
-4.81482e-35
-3.50637e-52
-9.62965e-35
-9.62965e-35
9.62965e-35
1.2326e-32
1.92536e-54
1.99266e-50
-3.08149e-33
-2.18598e-50
2.35255e-57
-9.62965e-35
-1.5145e-49
2.40741e-35
2.40741e-35
-1.5058e-49
3.85186e-34
-1.53827e-49
-1.47285e-48
1.42659e-48
-1.45347e-48
-3.85186e-34
3.85186e-34
-4.99656e-53
-2.40741e-35
8.49689e-53
-2.46519e-32
-4.93038e-32
4.93038e-32
-4.80003e-55
1.44445e-34
-7.70372e-34
-4.93038e-32
2.69817e-48
2.93935e-48
7.70372e-34
4.93038e-32
4.93038e-32
-3.00073e-47
8.82816e-53
-4.93038e-32
4.93038e-32
-4.76711e-48
-7.71459e-53
-5.22508e-48
4.2843e-54
3.55187e-61
-6.01853e-36
6.95346e-54
-1.54074e-33
-5.11886e-48
-3.95516e-47
9.86076e-32
-6.21163e-55
5.77779e-34
7.70372e-34
-9.86076e-32
3.141e-47
3.5416e-48
-4.93038e-32
-3.41877e-48
9.86076e-32
3.08807e-48
3.23014e-48
-3.39489e-48
3.01635e-53
4.93038e-32
-2.95823e-31
4.04757e-53
1.54074e-33
-2.43382e-48
1.291e-54
2.40741e-35
-7.70372e-34
-4.93038e-32
9.86076e-32
-5.85396e-55
-1.514e-61
-1.48405e-56
-5.54021e-62
-6.02319e-54
-3.85186e-34
-1.85281e-49
3.85186e-34
7.10298e-55
-2.19267e-50
2.31469e-50
-2.26093e-50
-6.01853e-36
-1.88079e-37
-7.93097e-56
2.63947e-51
-5.7882e-59
3.00927e-36
-2.84418e-52
3.00927e-36
3.70464e-57
-3.61963e-53
4.81482e-35
1.12673e-58
1.54074e-33
-2.40741e-35
6.15953e-56
-9.62965e-35
-3.08149e-33
3.08149e-33
-4.81482e-35
-3.08149e-33
-3.08149e-33
9.62965e-35
4.81482e-35
-1.20371e-35
-1.92593e-34
3.70264e-54
-6.86034e-53
-4.00079e-54
1.15648e-49
9.62965e-35
-1.2326e-32
1.15195e-48
-4.81482e-35