/*--------------------------------*- C++ -*----------------------------------*\
| =========                 |                                                 |
| \\      /  F ield         | OpenFOAM: The Open Source CFD Toolbox           |
|  \\    /   O peration     | Version:  2006                                  |
|   \\  /    A nd           | Website:  www.openfoam.com                      |
|    \\/     M anipulation  |                                                 |
\*---------------------------------------------------------------------------*/
FoamFile
{
    version     2.0;
    format      ascii;
    class       volScalarField;
    location    "20000";
    object      I1_47;
}
// * * * * * * * * * * * * * * * * * * * * * * * * * * * * * * * * * * * * * //

dimensions      [0 0 0 0 0 0 0];


internalField   nonuniform List<scalar> 
14751
(
1.87833e-54
2.29906e-45
-9.40286e-47
6.93209e-47
-2.88597e-46
-3.19829e-46
-1.0305e-43
2.08261e-47
-1.45505e-44
-3.31787e-48
-4.72696e-45
5.98392e-51
-2.51494e-45
5.31858e-47
-2.09079e-47
-4.11891e-48
-2.92137e-47
-2.11207e-47
-9.38103e-47
-4.10458e-48
-3.56748e-51
-7.92587e-47
-6.46347e-47
-6.49013e-47
-7.65723e-49
7.29338e-52
3.89736e-55
-8.97841e-48
-1.72905e-50
5.99401e-50
5.1976e-51
-2.72074e-53
6.56888e-49
1.24517e-48
-3.83268e-50
3.30915e-48
3.72816e-48
2.38422e-52
1.7283e-50
2.16728e-51
4.44383e-51
-2.32499e-50
9.5887e-53
4.01371e-53
3.90546e-49
1.11571e-47
1.48709e-49
1.01841e-47
1.19949e-54
-1.42991e-49
-4.78739e-50
6.0032e-49
7.16318e-50
-2.54941e-51
-2.0466e-49
-3.74835e-50
5.09931e-50
-1.90518e-49
-4.1866e-49
5.15603e-48
2.88053e-49
9.15537e-49
-5.15108e-47
3.92774e-46
-6.0676e-47
-3.58542e-52
9.95893e-49
-2.16384e-47
-1.13402e-49
4.31357e-47
-1.14966e-49
5.87521e-48
-2.52514e-46
-2.42574e-46
-3.83013e-48
4.70267e-50
-3.20669e-46
-3.07508e-46
2.2982e-47
-2.58888e-47
-3.03577e-46
6.83258e-52
-2.7758e-47
-5.41833e-47
1.29844e-47
-1.26781e-45
4.77387e-48
3.92759e-48
0
6.04016e-49
4.60277e-50
1.19105e-45
1.57061e-49
-2.58589e-51
-1.55588e-48
9.34416e-46
-8.11656e-50
-2.31159e-48
-8.66746e-56
2.25378e-45
-1.10018e-40
1.3578e-42
2.54094e-42
6.45637e-41
-1.33932e-40
-6.71922e-40
3.91114e-43
-3.56363e-40
-1.40697e-41
7.58908e-42
-1.56529e-42
-1.47305e-40
3.07454e-43
1.57683e-41
8.214e-43
-3.58335e-43
1.36183e-43
-7.71154e-42
-1.06359e-42
4.66654e-46
-5.8654e-42
-5.25128e-42
5.63779e-42
-4.01078e-46
3.61607e-45
2.05468e-43
-1.65333e-42
1.50639e-44
4.53149e-45
-1.94959e-44
1.58316e-44
-9.90357e-44
-6.28722e-44
1.78684e-44
5.90873e-43
8.4453e-43
-1.72788e-43
2.5117e-45
9.3898e-46
-1.51356e-45
-3.82022e-45
1.22122e-46
1.42726e-44
1.98594e-43
5.7895e-43
8.96608e-44
2.94803e-43
1.40931e-44
1.00054e-45
9.13383e-44
-1.08638e-45
-4.19669e-45
2.74065e-44
-5.37812e-45
8.26308e-44
6.32651e-47
1.37952e-45
-8.12935e-45
-4.29065e-44
-2.67521e-44
-3.0056e-42
7.11621e-42
-2.52961e-42
6.69713e-42
1.75095e-42
-3.92825e-42
1.09701e-43
2.36243e-43
1.96189e-41
-4.87145e-42
-4.67605e-42
1.7783e-41
3.30698e-41
1.81576e-42
3.00993e-43
2.15867e-41
-3.90156e-41
-2.38795e-43
1.28662e-42
2.16924e-41
1.05952e-41
8.95422e-42
-6.12707e-43
7.62894e-43
5.52087e-41
-3.10205e-44
-7.31084e-44
5.35888e-45
1.4171e-45
-6.04117e-42
-5.01235e-41
-2.03368e-41
-3.68447e-42
2.3787e-43
-5.29467e-41
1.82363e-41
-6.85615e-45
1.49528e-48
-2.11238e-43
2.52865e-38
6.212e-39
-2.54959e-38
1.30121e-37
-2.11625e-37
1.16682e-37
-1.28524e-38
-3.91024e-38
3.7879e-38
-4.00331e-39
3.56607e-40
1.14185e-38
-6.53458e-41
-3.65264e-38
-7.6282e-40
5.03007e-42
-4.3132e-40
-3.37207e-39
-2.33676e-39
1.47868e-41
9.66046e-40
2.1699e-39
-7.98946e-39
-1.5957e-39
1.0063e-40
-3.3122e-39
2.03086e-40
2.58848e-42
-1.66781e-43
-2.93217e-40
4.36048e-40
3.2014e-40
2.16004e-40
1.95019e-42
-3.56151e-40
2.67914e-40
-1.9657e-40
-6.75019e-42
5.9136e-42
-7.32189e-42
-6.48462e-42
-1.48511e-40
9.60836e-40
4.47212e-40
-8.59858e-41
-1.31018e-40
-2.73929e-40
8.75321e-42
3.28515e-43
5.10319e-41
1.02647e-41
-1.20828e-41
4.43724e-40
1.30566e-41
1.70833e-39
-6.177e-41
-1.30238e-41
3.39119e-40
4.59073e-40
-3.12769e-41
4.77399e-39
-1.37286e-39
2.59525e-39
3.09856e-39
1.47306e-39
2.09436e-38
-5.17346e-40
5.80728e-39
1.70692e-38
1.28414e-38
1.65743e-38
-3.96413e-39
-3.88144e-39
-7.84254e-42
-1.95392e-40
-4.80065e-39
5.26144e-38
-1.27581e-39
-1.70859e-40
-5.81735e-39
4.63608e-38
8.96767e-38
7.1196e-40
-1.0038e-40
-5.06874e-39
1.81835e-39
-2.0349e-41
-2.63031e-42
3.60093e-40
-1.11794e-38
2.24504e-39
-3.57541e-38
-4.0895e-38
-1.01634e-38
-1.07719e-38
-2.91811e-38
2.3522e-39
-3.46139e-47
1.97954e-44
2.10044e-37
-1.32188e-35
-6.83951e-36
-7.26672e-36
9.64249e-36
-3.711e-35
-1.02022e-35
-5.73375e-36
-5.67703e-36
-3.95949e-36
2.40338e-39
8.184e-40
-4.07948e-37
1.05124e-36
-1.01063e-39
-1.05683e-38
-2.87597e-36
-1.74181e-36
-4.34925e-37
2.3113e-39
-1.55371e-39
-2.80549e-36
1.67373e-37
8.88303e-38
-3.89551e-39
-9.19574e-38
6.90547e-39
-2.81329e-40
4.36926e-39
-3.94108e-38
-1.73141e-38
-1.57494e-38
-6.47718e-39
6.04152e-40
-1.76269e-38
7.84308e-38
1.20586e-37
2.14044e-39
4.75676e-37
6.88781e-39
-2.31591e-38
1.98653e-37
-9.54135e-38
-1.30028e-38
3.20298e-38
-7.06341e-38
-5.28997e-39
3.67552e-42
-4.01824e-43
1.45492e-39
2.08447e-38
3.72824e-39
-1.90319e-38
-1.19583e-39
1.90666e-38
-1.51389e-38
7.58875e-38
2.28323e-37
6.79793e-37
-3.89321e-38
-2.16095e-37
-3.91599e-38
-5.29943e-37
5.34635e-37
-1.39891e-37
-8.22134e-37
-1.15086e-37
2.38687e-36
-8.64538e-37
9.03096e-37
-6.15352e-37
-4.71461e-38
-4.44539e-40
-3.36279e-41
-3.11419e-41
-4.18024e-37
-1.57696e-36
-4.16773e-39
-1.11887e-38
7.33181e-36
-1.97423e-36
3.42049e-36
9.30225e-38
5.96964e-39
6.29878e-38
2.05813e-36
2.87871e-37
-1.62713e-39
-1.78024e-37
3.59222e-37
2.39754e-37
9.93418e-37
1.00296e-36
-1.31765e-35
-1.58022e-36
-1.71159e-36
-9.60808e-37
5.85484e-40
-1.47618e-42
-1.67724e-36
4.28914e-35
3.14724e-35
6.85501e-36
-2.52161e-34
-1.3513e-34
1.3164e-34
5.22256e-35
2.13028e-35
1.75361e-35
6.07632e-38
4.74624e-36
-9.70356e-35
-8.99215e-37
-5.3229e-38
6.55158e-38
-9.42544e-36
-9.93852e-36
1.04235e-36
-9.56727e-42
4.71748e-38
6.27974e-36
9.88322e-38
-1.07398e-37
-3.4527e-38
5.11782e-36
-3.06856e-37
-3.36064e-38
-1.99254e-36
3.59219e-37
2.23829e-38
-1.01725e-37
-4.57969e-40
-8.41031e-40
1.19852e-36
-1.26439e-36
-6.93911e-37
9.69012e-38
-1.62765e-36
-5.2033e-37
1.3464e-36
-3.69454e-36
-1.83435e-37
2.12627e-36
4.95509e-36
1.13193e-36
1.24497e-36
-9.90199e-39
-8.52028e-40
5.30123e-38
-1.35922e-37
3.72473e-37
1.09649e-38
-2.88257e-39
2.10034e-36
4.8269e-36
8.99948e-36
-1.74503e-36
-1.27329e-35
3.98123e-36
-2.8961e-37
-9.50692e-37
2.51648e-35
-5.65167e-36
-1.30354e-37
-1.86942e-36
3.71186e-35
-4.39635e-35
-5.26253e-37
8.25646e-35
-9.316e-36
4.36446e-38
-6.16491e-38
-7.27825e-42
-1.24658e-39
1.05832e-34
-2.93702e-36
2.60013e-35
-3.05926e-36
-4.41135e-35
1.15291e-34
-4.84587e-35
2.60683e-38
-1.46851e-42
9.21464e-38
-1.18679e-35
6.19096e-35
-1.28232e-36
1.25982e-36
6.05229e-37
-5.22809e-35
1.36784e-36
-1.77085e-36
1.69744e-34
6.44089e-35
-6.56257e-35
1.94486e-35
-7.21795e-39
2.17129e-36
4.75697e-35
1.03563e-36
-5.57023e-36
-1.17184e-35
-8.52592e-34
7.04748e-34
-9.02003e-34
-1.05799e-35
-9.65436e-38
2.63465e-36
2.24699e-35
-2.07626e-34
2.63182e-34
2.9369e-38
-4.71604e-36
2.47995e-37
-1.51633e-34
-2.78079e-35
-1.69327e-34
1.06129e-36
-1.41679e-37
5.20498e-35
1.53238e-37
1.74672e-36
1.43098e-37
-1.99899e-35
7.68243e-36
-5.4544e-36
1.2502e-35
9.31399e-37
8.24935e-37
5.29913e-36
7.14236e-38
-2.19439e-40
5.27191e-39
3.10684e-39
-3.64886e-37
1.85023e-35
-2.12771e-35
5.3222e-35
2.6526e-36
5.79872e-38
8.45446e-38
-1.40084e-37
-4.6194e-36
-1.14761e-36
-6.6971e-37
-8.96101e-38
-1.5864e-39
-3.87444e-37
2.3061e-38
-7.07806e-37
1.07443e-38
-1.47555e-39
2.97778e-36
-8.9264e-36
1.61606e-35
1.14825e-36
4.15219e-35
-2.03652e-35
4.61805e-36
2.2943e-35
-3.72206e-35
8.45147e-37
-1.23253e-37
1.43247e-36
2.64714e-35
1.35258e-34
-3.50521e-36
-7.13876e-35
8.13428e-35
-4.37461e-37
-7.50188e-41
-3.97506e-40
-3.3633e-38
1.56389e-34
2.07984e-36
-6.4304e-35
2.06468e-34
3.70898e-35
1.23506e-34
1.64725e-35
9.07416e-38
-9.62894e-36
6.52542e-36
4.62873e-36
-3.52507e-35
7.28197e-35
-3.67422e-37
-4.92717e-36
1.34401e-34
-6.01944e-40
1.77328e-37
-5.44369e-34
-2.98947e-34
1.02499e-33
-2.81065e-34
2.86546e-38
-1.19802e-36
-2.15397e-34
-1.47028e-34
-9.69411e-34
4.40258e-35
8.88218e-34
-4.08285e-35
2.64235e-34
-1.08497e-33
-2.87851e-35
3.88642e-37
-3.92867e-35
6.60809e-34
-7.79269e-37
6.23973e-37
-1.21513e-34
2.28174e-36
-2.95165e-34
1.65398e-34
2.2969e-34
-1.81184e-37
1.16044e-37
3.00953e-36
4.70704e-36
-5.43666e-35
-2.21782e-36
-3.40177e-36
-2.53649e-35
6.97737e-36
-2.50406e-35
-1.21183e-38
3.74167e-37
-7.37561e-36
4.28755e-37
3.29109e-38
4.58687e-38
3.62421e-35
1.33004e-35
7.83485e-36
-5.87226e-38
-2.65021e-34
1.04008e-36
1.83086e-36
1.11905e-38
-2.40922e-39
-2.02775e-39
-8.1521e-38
-1.61556e-36
2.86476e-37
-1.27763e-39
5.22559e-37
-5.48518e-40
1.80278e-37
-7.10154e-39
-1.21452e-37
-9.37392e-36
3.73202e-37
-1.04358e-35
-1.31116e-36
-2.35888e-35
2.51317e-35
-2.3479e-36
-2.08604e-35
-7.56911e-37
-7.15063e-42
-4.61531e-36
6.44581e-35
-2.09494e-35
-1.74665e-34
5.59208e-37
-2.76964e-34
-1.78012e-34
-1.27733e-35
-8.21468e-37
3.39139e-37
-8.02364e-36
-4.50687e-34
-3.74518e-35
-1.13795e-35
8.22638e-35
-4.94558e-35
-6.78877e-34
-1.30711e-36
-1.03082e-36
5.24611e-35
2.43663e-35
-3.59272e-37
-1.72656e-34
-9.4342e-35
-3.25308e-35
-1.77539e-35
-2.71795e-35
2.081e-40
5.13736e-38
4.04487e-34
4.92653e-36
-6.99877e-33
3.31515e-34
2.71392e-39
3.20141e-36
1.20676e-34
2.61247e-34
2.61062e-34
-9.14186e-34
2.35578e-34
-1.443e-35
4.98863e-34
9.24583e-34
-5.2514e-34
-2.13496e-35
-5.51632e-36
-7.15766e-34
2.76911e-35
-8.95376e-37
-2.15308e-35
2.72246e-37
2.6444e-34
3.10657e-36
-1.8329e-37
-1.5925e-39
-9.83194e-43
-2.82528e-38
2.64045e-35
4.99019e-35
2.76986e-35
-1.19543e-36
-2.79536e-36
-3.5198e-37
1.27789e-35
-2.08811e-36
-3.50835e-36
-1.38896e-37
-6.02031e-36
1.96112e-37
1.08183e-36
-4.32783e-35
-1.95629e-35
-1.02072e-34
-2.04048e-36
-1.1948e-38
3.30501e-37
1.19437e-35
1.27908e-37
6.94271e-38
4.17409e-36
4.88629e-38
9.44641e-37
-7.75182e-38
3.98982e-40
-2.79019e-37
3.58954e-38
5.579e-38
8.4572e-39
5.02375e-36
-1.57462e-37
-3.79649e-38
-1.52696e-35
7.02742e-36
3.353e-38
-8.87786e-36
1.22582e-36
-3.71982e-37
1.11729e-39
1.29452e-36
7.59972e-35
-3.50354e-35
2.76233e-35
2.65165e-34
-2.35693e-36
1.60689e-34
2.28007e-34
1.08229e-34
-6.30269e-37
-9.50379e-37
-8.05321e-35
-2.43466e-36
6.43779e-34
-9.54076e-37
1.03904e-34
3.6259e-35
2.43039e-34
-6.05014e-38
7.39958e-36
-9.08763e-37
7.50552e-36
3.49109e-38
-7.00105e-36
2.51212e-36
2.73134e-35
1.44269e-36
-3.26018e-34
8.89465e-38
9.29059e-40
3.04143e-36
3.3683e-35
2.32539e-33
-8.06036e-36
3.17554e-43
1.16746e-36
4.07407e-36
-3.0448e-34
2.97562e-34
5.32409e-34
-5.03579e-35
-2.57189e-34
-3.37928e-36
-4.57715e-36
5.51283e-34
-1.65861e-34
3.75253e-35
4.37049e-34
-2.38527e-35
1.41372e-37
-1.36975e-34
-4.28255e-36
3.72018e-34
2.16764e-36
-6.49211e-38
8.28449e-42
-5.69916e-41
1.77292e-37
-4.30956e-35
5.15315e-37
-3.59212e-35
1.59388e-35
5.10058e-36
-4.60659e-36
-1.94668e-39
1.84378e-36
1.32182e-36
1.19877e-35
1.64673e-35
2.05811e-35
-1.0935e-35
1.31785e-36
1.40089e-36
-1.20835e-36
2.42888e-35
3.39006e-35
-3.15657e-36
-1.44313e-36
2.52901e-36
4.13132e-37
-3.34212e-37
5.97501e-37
-2.01308e-37
2.71185e-40
-9.21606e-41
7.85463e-38
-9.54295e-38
4.22449e-39
-5.15105e-38
1.31186e-36
1.91715e-36
-5.89712e-39
-5.31011e-38
-5.23473e-36
5.20732e-38
-4.80753e-39
-5.34452e-39
-1.78978e-38
3.12725e-38
2.32931e-35
3.85384e-35
-7.10991e-37
-2.05824e-35
3.04469e-35
1.33464e-35
-1.65255e-35
-5.13303e-36
9.78884e-36
7.2665e-39
-1.95389e-38
3.68548e-35
1.0387e-37
3.73918e-36
-1.28479e-38
-4.13604e-35
1.11534e-36
-1.95547e-37
-6.88657e-38
3.58647e-35
5.9299e-36
5.84846e-36
-2.09194e-36
5.72957e-35
1.51304e-36
1.12637e-37
-9.73184e-35
2.58883e-34
2.33911e-38
2.35746e-37
-2.6508e-33
-9.33427e-34
6.98051e-36
-6.2789e-42
2.66306e-40
1.61059e-37
3.64744e-36
3.45123e-35
-3.73198e-37
-1.48712e-37
6.23046e-35
5.63826e-35
5.14948e-39
-3.88457e-39
-1.40481e-35
1.18679e-34
-5.57249e-37
-2.22202e-35
4.18868e-35
-4.8555e-37
1.52972e-34
5.05925e-35
1.95552e-35
4.7493e-36
-4.77455e-39
5.44106e-42
3.99423e-37
9.14772e-37
2.25057e-35
-1.16531e-35
1.63817e-35
1.31395e-37
4.14496e-36
5.34903e-36
2.89862e-40
-8.83439e-40
-1.34964e-38
1.02452e-36
-8.53995e-36
-1.07492e-35
1.09885e-35
-1.09754e-37
-2.48603e-38
1.0235e-35
-1.87228e-36
-4.37208e-37
6.54536e-37
1.82398e-37
-4.05406e-38
-1.93371e-39
4.81329e-38
5.20669e-38
4.61048e-41
3.94505e-39
3.9652e-42
9.94596e-39
-8.73114e-38
-1.26215e-39
1.57831e-37
1.94878e-36
1.00977e-36
6.20989e-38
2.96521e-40
-7.84968e-36
-2.81649e-36
6.18108e-39
-6.09377e-39
2.08815e-36
1.31762e-38
3.4755e-35
1.05879e-34
6.90789e-37
-2.19957e-36
1.08592e-34
3.68045e-35
-1.83239e-36
7.06242e-35
-2.30838e-35
-2.42555e-38
9.72564e-38
2.31039e-34
2.81639e-37
3.73547e-34
2.96673e-36
4.04288e-37
1.01122e-36
5.8351e-36
-2.12142e-36
1.5182e-34
7.2658e-36
-2.75871e-36
-1.97305e-34
5.50824e-35
5.72965e-37
-1.0064e-38
-2.43155e-34
2.90156e-34
3.14637e-38
1.04328e-37
-5.67862e-34
-3.9436e-34
-2.2266e-36
-4.73691e-38
3.80338e-41
-3.49572e-37
-4.74046e-37
3.54783e-34
4.63903e-35
1.88165e-34
-3.3346e-36
2.37395e-36
3.46212e-37
-3.52747e-39
-5.90241e-35
6.63924e-34
1.96062e-34
-4.33729e-35
1.94471e-36
3.18275e-34
-6.16939e-35
2.07182e-34
1.28806e-34
-9.03285e-36
1.67687e-39
-1.09147e-39
3.597e-35
-1.86162e-35
3.47642e-37
6.38839e-35
-2.51289e-37
1.80395e-35
1.18873e-37
1.457e-35
1.57488e-37
3.49293e-36
-2.09688e-36
8.76274e-36
-9.86198e-37
7.32167e-38
2.67839e-35
-1.61984e-37
4.7164e-37
3.20087e-35
7.65218e-38
1.11914e-37
2.99779e-36
1.40441e-36
5.2951e-38
9.98408e-40
3.6082e-40
4.01367e-38
-2.3649e-37
3.97097e-38
-9.27221e-42
2.62878e-39
-6.50897e-38
9.80979e-38
7.89468e-38
-3.48763e-36
1.51863e-38
-6.13787e-36
1.2555e-37
9.86944e-36
1.14559e-35
6.46331e-39
1.18588e-36
2.87696e-36
3.06882e-39
3.25978e-39
-4.96813e-36
-1.33563e-34
-5.68961e-38
1.34146e-34
-2.06253e-36
-1.6311e-34
5.71686e-37
3.06656e-34
-2.00668e-37
-1.63624e-37
-5.0147e-34
-8.24222e-38
1.58955e-35
-1.9168e-34
4.93052e-42
-3.95464e-34
6.40637e-36
-1.55298e-33
-3.07737e-36
-6.76483e-34
4.57075e-35
-1.44888e-34
3.00821e-34
-2.10276e-34
-1.88309e-36
3.87421e-34
-5.63356e-34
-1.57606e-37
5.52765e-36
-7.26349e-36
1.29248e-33
4.19763e-34
1.76859e-34
-1.44547e-38
7.48175e-41
-1.76373e-37
3.31576e-34
3.26052e-35
1.90608e-34
-3.08701e-37
1.68274e-33
8.93464e-34
-9.06332e-38
9.84159e-37
1.50682e-35
6.7102e-36
3.19265e-37
-1.82203e-38
5.1533e-35
-1.00457e-36
7.26075e-34
-8.16148e-36
-1.58343e-36
1.04141e-37
-1.89665e-39
-3.17703e-35
1.08342e-34
5.16102e-35
-4.78929e-35
-3.42623e-41
-2.24502e-35
-1.87567e-37
-1.78845e-35
1.32122e-35
-8.01406e-36
-3.4785e-38
1.68477e-35
1.02306e-36
3.54193e-36
1.55724e-36
-2.65517e-35
3.59073e-36
-2.56058e-35
3.68626e-42
6.86731e-37
-1.63389e-37
2.79829e-37
-5.00646e-36
3.08229e-37
-1.95706e-38
-1.32877e-36
6.39523e-37
4.10158e-38
-1.13194e-41
1.31797e-40
8.78138e-37
2.8117e-39
2.26661e-36
-9.83498e-37
-1.6262e-38
1.26506e-35
-7.99041e-36
8.71208e-36
-1.3871e-37
6.20559e-37
-3.97743e-35
1.15621e-36
1.40152e-36
-4.20285e-35
-1.54227e-36
-4.09272e-35
2.09388e-37
7.65454e-36
-4.18422e-34
3.18482e-34
-2.07296e-34
6.13048e-36
8.35945e-36
-1.32308e-37
-1.32422e-34
1.00952e-37
-2.03373e-37
3.81782e-34
2.58283e-37
1.68446e-33
-8.9355e-34
9.43099e-34
-8.98032e-34
1.25807e-33
-4.2709e-35
1.58863e-33
2.89703e-35
4.6671e-34
1.43878e-34
-3.91153e-35
9.75743e-36
6.26352e-35
3.3604e-33
6.90362e-34
-7.6118e-34
-7.0512e-34
-4.63647e-35
-7.44914e-38
1.18895e-36
-6.05888e-38
-4.61716e-34
7.00681e-34
-4.70076e-34
-1.34149e-36
1.97261e-33
-7.76207e-34
-1.26624e-37
-4.4852e-38
2.34716e-35
-3.49405e-36
1.00733e-39
4.59568e-37
4.42658e-35
8.44502e-38
-7.22709e-34
5.43224e-36
4.20953e-34
-3.04135e-38
2.47909e-37
4.60442e-36
-5.3651e-35
-4.35465e-35
-9.07135e-35
5.81614e-40
-3.93997e-36
3.8412e-35
9.82361e-37
-1.69841e-35
1.58395e-35
-1.69634e-37
1.59207e-36
-1.41493e-36
4.1026e-36
-2.64333e-35
3.31192e-35
6.09208e-37
-6.44724e-36
6.18571e-39
2.08024e-39
-3.57152e-37
-2.0505e-38
8.91169e-36
4.7176e-38
-2.81121e-36
4.25511e-36
3.05452e-38
-6.203e-38
3.00408e-40
2.47337e-39
2.27916e-37
3.67633e-39
-7.16088e-36
-1.78318e-36
-3.16403e-39
-1.19138e-37
1.38046e-35
-4.95427e-35
-3.2823e-37
-7.97944e-35
6.54058e-35
1.64507e-37
-3.35293e-37
6.49074e-35
-1.01965e-34
4.42894e-34
-2.23564e-37
-6.6214e-38
2.55523e-34
-3.54167e-36
3.38999e-34
3.16541e-35
-2.74005e-34
2.51822e-35
-2.85538e-34
1.68312e-35
1.57564e-37
-3.96646e-35
3.02315e-38
-2.35453e-33
4.34205e-34
2.06195e-33
1.58238e-33
-3.66951e-35
2.42463e-34
1.26969e-35
-6.89884e-34
2.6534e-35
-4.77663e-34
7.47286e-33
-1.8674e-35
-1.70673e-34
-5.99273e-33
-6.97682e-34
-4.15879e-36
-4.69271e-36
-2.79435e-34
-2.243e-38
1.08473e-36
-2.08421e-36
-4.39077e-35
-7.3247e-34
2.3578e-35
-6.62696e-37
-2.0545e-33
4.2916e-35
-1.38944e-36
3.62347e-40
1.8137e-35
2.46382e-34
-3.5544e-36
6.20426e-36
-4.16392e-34
8.72629e-37
-1.43839e-35
-2.33575e-38
-6.15356e-34
3.91221e-37
4.02055e-34
7.32924e-38
1.35691e-35
2.83862e-38
3.34769e-38
-1.88248e-38
3.69482e-34
-3.91811e-35
5.45938e-39
-9.13817e-38
-1.16638e-35
8.89909e-38
4.81535e-42
-7.51994e-37
-1.40783e-34
2.82701e-35
8.66401e-39
2.01182e-36
3.35249e-35
-1.43287e-38
1.64047e-36
-1.7477e-35
-7.19891e-41
1.33909e-39
-1.54507e-37
8.30483e-36
-3.86045e-36
5.68445e-40
-6.6211e-38
-1.44259e-39
-1.02017e-37
7.01342e-37
-2.43382e-38
2.87495e-36
3.68131e-36
-8.57774e-39
1.07289e-39
-8.53299e-37
-3.63506e-35
-3.79121e-35
-4.36709e-35
1.48921e-36
3.3471e-36
7.40187e-36
2.35994e-36
3.53106e-34
-2.47581e-36
7.82751e-36
-3.55578e-36
8.31688e-34
-1.72329e-37
9.30797e-36
-8.78351e-34
3.97413e-34
-9.01213e-34
1.4509e-33
-9.69765e-34
-1.93965e-37
3.39323e-35
1.53772e-36
1.56499e-33
1.56233e-33
1.54742e-33
-6.52613e-35
2.31721e-38
-5.98401e-35
-1.34959e-36
2.74851e-34
-1.14002e-33
9.01757e-34
-1.27315e-32
-5.56243e-36
7.39732e-35
4.87494e-33
2.47774e-36
-3.68365e-36
8.31404e-37
9.95548e-38
-6.23071e-40
-5.42635e-36
6.88009e-34
-1.00616e-33
-3.01283e-36
-8.50612e-34
-8.09977e-38
-2.0933e-33
1.99062e-33
-5.24698e-34
-3.42851e-39
5.76664e-35
1.24594e-35
-3.28766e-34
7.87363e-34
7.35335e-36
2.74713e-36
6.70946e-37
-8.67574e-38
9.62867e-34
-3.13547e-38
-2.96027e-34
6.6843e-36
3.59103e-34
-3.34473e-38
6.51987e-38
1.45186e-37
-3.2909e-34
-1.86764e-36
8.69395e-38
9.19203e-35
9.36253e-37
-3.84091e-35
1.47662e-37
-6.99166e-35
1.67568e-34
-2.01997e-37
4.49454e-39
-7.71086e-37
1.53725e-36
1.03463e-37
1.25265e-36
3.06694e-35
2.1302e-39
-4.76589e-36
-1.06894e-35
-3.60585e-36
2.68082e-36
2.23885e-39
6.28291e-37
2.23003e-39
-3.84986e-38
3.39125e-38
-1.57715e-36
5.74157e-36
3.31054e-36
2.72758e-39
7.44061e-41
-1.0465e-38
1.4581e-34
2.04376e-35
7.34352e-35
3.06098e-36
-1.54959e-34
1.38074e-36
6.50602e-36
-2.19175e-34
5.85773e-37
-1.82321e-34
3.18421e-35
-4.53374e-34
-9.99786e-38
-2.41139e-36
1.30596e-33
6.37625e-37
2.18994e-33
1.15288e-34
1.44401e-33
8.27993e-37
1.46823e-35
6.72591e-37
-4.4505e-35
7.99375e-35
4.18203e-36
-2.34604e-36
-1.02085e-35
9.76198e-35
-8.96904e-37
2.51866e-34
3.18029e-33
7.76309e-34
-1.13174e-34
-1.72538e-35
1.64248e-33
-3.63809e-33
1.57154e-33
3.41051e-33
-3.93889e-34
1.2903e-35
-8.65813e-38
3.68801e-36
-1.22259e-35
2.20679e-33
2.47023e-33
2.6776e-33
-2.75868e-37
1.25889e-35
-2.74615e-33
2.92793e-33
-4.01141e-37
-6.14198e-34
-9.4719e-40
2.18272e-33
-4.76113e-34
8.13059e-36
2.59765e-33
6.53897e-34
2.0694e-37
4.50834e-34
1.00782e-35
2.28681e-36
3.86795e-34
-2.83268e-34
-4.7102e-37
3.08243e-34
-1.92198e-38
3.47382e-37
6.76138e-38
1.68202e-37
1.05758e-34
5.35524e-35
2.30926e-35
3.85862e-37
9.8597e-35
-2.87092e-37
1.92964e-38
1.57969e-38
-9.48016e-39
-3.28762e-35
-7.37831e-39
3.69044e-36
-1.48132e-37
6.43096e-42
-2.11422e-36
7.69904e-36
-9.26325e-38
-1.37802e-37
9.9331e-42
-7.12871e-39
4.83731e-40
-8.2629e-38
4.79879e-38
2.67063e-36
2.67662e-38
1.23137e-35
1.04473e-38
2.40493e-39
5.93371e-38
1.00158e-34
5.66825e-35
1.50065e-34
-1.32428e-34
3.97757e-34
1.74949e-37
-1.453e-34
-8.97647e-36
-4.18935e-37
2.63377e-34
1.0723e-35
2.83672e-34
-2.96672e-36
1.1406e-34
-1.94261e-35
-7.8868e-37
-1.01826e-33
-3.32694e-37
2.0646e-36
1.47275e-38
7.54264e-35
3.44233e-38
1.07561e-36
8.52567e-35
3.39331e-35
-4.05943e-35
3.31439e-34
6.79145e-36
9.59235e-36
1.3721e-33
-3.47841e-33
-7.22355e-34
2.56662e-35
1.57858e-33
2.37704e-33
3.20689e-33
-3.26e-33
-4.19001e-34
1.22497e-33
4.86461e-36
-2.66276e-40
-1.5635e-36
-6.82714e-34
-1.24046e-33
2.67255e-33
-8.82615e-34
-1.90998e-37
-8.72564e-38
4.1323e-33
2.48702e-33
-4.45963e-37
2.43377e-36
-2.86185e-37
-4.11012e-34
2.55901e-36
8.29009e-34
-3.28766e-33
-1.18146e-33
-9.44399e-36
1.22545e-33
1.19066e-33
-2.02355e-34
-2.62026e-34
1.06495e-35
6.80378e-37
-4.91613e-34
1.71858e-37
6.90731e-36
5.70913e-38
3.67731e-36
-2.73946e-34
2.59372e-35
7.63716e-35
-1.61541e-35
-2.00532e-37
-1.78986e-36
-5.49475e-35
-4.23039e-35
6.68478e-38
-8.25553e-36
1.33881e-38
-7.05024e-38
-1.40272e-35
9.83257e-39
-1.28161e-36
1.33262e-35
-1.01736e-40
-3.95005e-36
4.35923e-40
1.63643e-43
7.13012e-41
1.86659e-37
-1.15422e-36
-4.80843e-38
3.79127e-39
-4.43459e-37
-1.38137e-38
-4.61139e-41
1.98238e-40
1.11494e-37
-1.40583e-36
8.89954e-35
7.26528e-35
-2.90043e-34
-2.27892e-36
2.23312e-34
1.28707e-34
-3.19399e-37
2.34396e-36
1.72192e-35
2.02472e-36
1.01897e-34
-8.66352e-36
2.15836e-39
-6.2534e-37
1.11656e-34
8.37773e-37
-1.7509e-40
1.91573e-37
-1.59151e-33
-7.99285e-38
2.28312e-38
-3.50132e-35
1.37153e-35
-3.33463e-33
8.71598e-35
-1.32007e-36
-7.89846e-33
-3.21894e-35
-8.79003e-34
-7.12894e-36
-4.12063e-35
-9.17728e-34
2.83455e-33
-1.66397e-33
2.87939e-33
-3.28893e-33
-6.14006e-34
-8.81304e-36
-2.61418e-40
2.80749e-36
6.38833e-38
-1.45413e-35
-1.75366e-33
6.83056e-35
4.15072e-39
-5.75672e-36
-4.05254e-33
7.07861e-34
-3.85717e-37
4.02604e-40
0
7.02882e-36
3.92097e-36
3.69547e-35
5.03639e-33
5.31484e-33
7.19947e-34
-1.21941e-33
4.21052e-33
1.15395e-33
-1.87633e-36
1.91447e-38
1.46264e-37
6.15384e-34
7.16511e-38
2.69106e-35
2.68796e-34
1.95807e-34
6.09412e-37
9.25082e-37
1.10549e-34
1.62417e-34
4.89192e-38
-7.8566e-35
7.07309e-35
1.33662e-34
2.84224e-37
1.40832e-34
-6.28589e-38
-1.30576e-35
2.69097e-35
1.61365e-38
9.06046e-36
-3.97757e-38
1.03139e-37
7.46888e-36
1.02201e-41
1.70759e-45
-7.20318e-41
5.46851e-37
2.19961e-36
-5.38734e-40
-1.36604e-37
-4.29023e-36
4.03709e-39
4.16277e-38
4.85513e-38
2.56596e-37
8.99888e-36
-1.8741e-37
6.02959e-35
1.75245e-34
-9.01207e-35
-9.27832e-37
-1.2892e-35
9.38961e-36
3.20571e-38
1.50811e-35
-4.3516e-34
-5.90897e-36
4.06902e-34
7.04807e-37
7.56644e-37
8.10362e-35
1.59886e-35
4.35045e-36
2.92906e-37
2.18248e-33
1.44693e-36
-4.50614e-35
-8.50126e-37
2.33605e-35
8.04537e-33
4.89422e-34
-3.83059e-37
3.42908e-33
-2.77504e-35
1.64124e-33
4.61173e-34
2.10979e-33
1.73554e-36
-6.93735e-33
-1.31503e-35
-3.33842e-33
-1.86984e-35
-3.71014e-37
7.26115e-34
-2.8502e-37
-1.96421e-36
5.57767e-34
-4.43382e-37
-2.72572e-33
1.25488e-33
4.93163e-35
4.52233e-33
8.39937e-33
6.76958e-34
-1.101e-36
8.22001e-38
-1.11913e-41
3.11892e-35
3.01196e-33
1.06727e-33
-1.25137e-33
6.30462e-33
3.31033e-35
-1.1794e-34
1.47949e-34
-1.96462e-34
2.74467e-33
2.18819e-37
-3.56313e-37
-1.96156e-34
1.73715e-38
2.12776e-36
-1.72566e-34
-1.74502e-34
-4.30927e-38
9.21479e-35
1.58649e-34
-1.33445e-34
-2.95373e-34
9.91617e-35
-2.13972e-37
-8.60741e-35
1.0017e-38
-9.21596e-35
-8.7658e-35
2.40319e-35
-1.07747e-37
1.02016e-39
8.71724e-36
1.47267e-37
1.34188e-36
-5.05861e-38
8.6197e-40
-2.0539e-42
2.72958e-42
1.88067e-39
-4.1732e-38
-9.25014e-38
-3.00155e-36
8.59147e-36
1.66154e-37
-1.45873e-35
7.0824e-36
2.91722e-35
-1.32713e-36
2.16751e-38
5.50922e-35
-3.28227e-37
2.49528e-34
6.01374e-36
-8.33198e-35
-3.16612e-34
5.40897e-38
4.67254e-36
7.12888e-34
1.18513e-34
5.19032e-35
-4.85982e-37
2.19364e-39
1.60632e-35
-4.41357e-34
-1.75104e-33
-4.28789e-37
1.02737e-34
2.90847e-36
-2.07721e-33
-6.98834e-39
2.93038e-34
-6.47481e-33
-2.67411e-35
2.41161e-35
8.65428e-33
-1.15494e-35
4.48305e-33
1.10153e-33
-4.99653e-33
-1.73031e-36
2.05166e-35
-2.26044e-36
2.74883e-33
-2.56102e-36
1.22391e-33
-5.95107e-34
-7.15182e-38
-2.62793e-37
6.97886e-34
1.15786e-33
5.65335e-34
6.21884e-35
1.39671e-33
-2.05595e-33
-1.61599e-33
3.50033e-33
-1.35156e-37
8.55756e-40
-5.77479e-36
3.42922e-33
6.74227e-34
1.4702e-35
-4.82522e-35
-1.1789e-33
-5.29415e-34
2.15799e-33
-2.3184e-33
-2.85735e-36
3.65353e-33
8.36585e-37
-6.94904e-39
-7.93671e-36
3.57452e-38
2.55964e-34
-1.7468e-37
-5.47498e-36
2.93377e-34
9.23283e-38
2.27008e-37
2.51424e-34
2.50482e-34
1.16773e-34
-1.96133e-35
6.97174e-35
1.81241e-36
8.07815e-35
4.09063e-36
1.66882e-36
-1.75264e-35
-3.51223e-37
2.09011e-35
-1.92536e-35
-2.72403e-38
3.74701e-39
-8.3395e-40
-3.12233e-40
-8.43608e-40
1.10046e-37
1.62463e-39
-2.16007e-36
6.53079e-36
2.21518e-38
-1e-35
3.00332e-35
-3.20199e-37
-1.52177e-35
-3.85789e-35
-8.63006e-37
-2.29269e-35
-4.63971e-35
-1.39452e-34
1.1591e-34
2.55659e-34
5.50921e-34
-4.27856e-40
-5.8212e-34
1.85217e-35
-2.49201e-36
1.08286e-34
-2.24663e-36
2.78534e-37
-1.21018e-33
6.91345e-34
4.46362e-33
-7.45789e-35
1.75092e-36
-1.02338e-36
3.04349e-33
1.62113e-36
1.86482e-34
3.5315e-33
-3.10544e-36
-2.47637e-33
4.6319e-35
1.99545e-35
-7.11325e-35
-5.45931e-35
3.97709e-33
-1.41444e-35
3.11496e-40
2.55845e-38
9.31959e-35
2.70642e-35
-9.00444e-34
-6.10988e-36
-1.0433e-42
-8.77642e-37
-1.76056e-34
-5.96223e-34
2.88614e-33
-5.70079e-36
1.50328e-35
1.14365e-35
3.63417e-36
5.05491e-34
3.73578e-35
-8.73516e-37
1.50803e-33
-9.72249e-34
8.049e-34
-1.31249e-36
5.5425e-36
-2.24528e-33
3.59075e-33
-6.49153e-34
3.83861e-35
1.4529e-37
-2.37299e-33
-2.56637e-37
-3.70452e-37
4.77576e-37
6.95014e-37
-4.60149e-34
2.55262e-34
5.19925e-37
3.27828e-34
5.78566e-35
-1.74956e-36
-1.5298e-36
3.19345e-34
1.29461e-37
5.30833e-35
-1.89865e-36
-1.54493e-35
1.84431e-37
1.97589e-34
-1.66661e-35
-1.16077e-35
-4.36968e-36
-1.1777e-37
2.99904e-35
1.87268e-39
-1.20447e-36
3.12511e-39
2.38381e-38
1.5198e-39
3.54379e-41
1.05873e-41
6.10713e-36
1.41125e-38
-5.30574e-36
2.57519e-35
-1.53743e-37
-1.98339e-35
-4.75452e-37
1.00512e-34
3.54133e-35
1.66669e-34
1.10283e-34
1.09901e-34
-4.61183e-35
-3.23964e-37
1.16606e-35
-3.41889e-37
6.98238e-34
-1.81223e-37
4.14301e-37
-1.84237e-36
-1.67969e-34
-1.23053e-37
2.16122e-33
-1.17341e-35
-2.66509e-33
-8.33972e-34
2.07939e-33
-3.21271e-35
2.7599e-36
-2.13969e-36
-2.18848e-33
-6.52285e-35
-1.63621e-35
3.28513e-33
-2.4027e-33
-1.61105e-33
-1.93702e-36
-1.25623e-36
-2.78033e-34
2.46478e-33
-1.34605e-36
-1.30135e-36
4.07032e-34
3.99982e-33
2.75904e-35
2.61742e-34
-5.00169e-38
-1.06067e-36
-3.26361e-34
9.81043e-36
2.98194e-33
4.21523e-33
4.49652e-33
-2.01713e-36
4.0761e-33
1.06376e-34
5.78165e-33
-1.39549e-36
-1.03232e-35
1.42106e-36
1.0203e-33
9.58435e-37
2.16596e-38
-6.06855e-35
-5.12481e-34
-3.32325e-35
-3.00684e-35
-2.63515e-35
-7.92888e-35
2.07112e-36
2.34482e-36
-3.8857e-37
-1.45203e-36
1.23284e-33
-9.64441e-35
2.35035e-38
-5.61944e-35
6.67085e-35
4.35928e-35
4.18269e-38
3.41033e-38
2.89833e-41
3.21347e-37
-6.76613e-36
5.26038e-35
-2.56095e-36
6.61313e-35
2.88261e-35
5.93477e-35
1.44851e-35
1.48382e-39
2.55775e-35
-3.16766e-41
4.50358e-36
2.32105e-40
-1.10356e-37
6.67589e-41
-1.8343e-38
7.19142e-39
-7.35428e-38
4.2296e-36
1.98316e-35
9.72896e-38
3.46039e-39
-2.14604e-35
3.38736e-35
-4.266e-38
1.12184e-36
9.90746e-35
-1.47681e-37
1.71497e-37
1.31236e-36
1.44078e-37
-7.47059e-38
8.26335e-36
6.35885e-34
-1.2599e-35
1.46396e-35
4.80224e-36
8.59283e-34
-1.21593e-37
3.01298e-36
-1.85252e-37
1.86249e-33
1.82545e-33
-1.98229e-33
-6.68487e-34
4.9636e-35
-2.3371e-37
3.97576e-33
3.394e-34
-2.77719e-33
-7.43663e-36
6.14672e-34
2.77784e-33
1.27141e-35
-3.82146e-36
7.52809e-34
-9.30369e-34
-7.15548e-36
4.85361e-36
-5.10837e-36
-2.04122e-33
1.57596e-33
-1.60201e-34
-4.98138e-38
2.92311e-37
-5.01999e-38
-7.32285e-37
1.57121e-33
3.55065e-33
1.65092e-33
-1.87222e-36
-7.47302e-34
7.169e-33
6.74484e-33
1.37051e-35
9.9446e-36
2.97358e-33
-1.69058e-33
-5.80612e-38
3.59628e-35
2.00826e-33
3.23545e-36
2.26082e-36
1.63746e-33
2.139e-33
5.95002e-34
-5.14268e-37
-1.86184e-35
7.29031e-37
2.02231e-36
-1.58388e-34
1.51196e-35
7.12009e-34
-1.73284e-37
-1.19634e-38
1.23646e-34
3.28131e-38
4.1346e-38
4.28012e-37
2.75393e-36
4.68277e-35
8.68161e-39
3.10692e-35
2.70421e-35
2.74758e-35
6.51055e-35
-2.30237e-37
3.33141e-40
1.86593e-38
6.78695e-39
6.65098e-38
2.34583e-38
9.20406e-37
3.57692e-40
4.43996e-37
1.9302e-36
6.60964e-39
-3.34717e-36
2.70389e-37
1.66376e-39
6.51395e-39
1.59688e-34
1.34826e-36
3.73187e-35
7.5976e-36
4.75373e-35
3.27771e-39
2.10076e-38
1.50296e-34
4.05411e-38
4.02771e-38
1.36863e-34
5.55937e-36
4.0743e-35
6.0237e-34
6.47968e-35
-2.9239e-34
9.51887e-37
6.05103e-37
1.18895e-36
1.57412e-37
6.1965e-35
1.53197e-33
2.27642e-33
-1.27037e-33
-1.93872e-37
1.39481e-36
-3.81979e-35
2.01862e-33
-5.94027e-34
4.9505e-34
1.66734e-35
-8.06137e-34
1.26453e-33
3.53595e-33
8.88991e-36
1.82693e-33
4.12876e-33
4.92562e-33
8.33661e-36
9.59205e-34
2.27404e-36
-4.40561e-41
9.12905e-40
1.75725e-36
-1.17921e-36
1.95387e-33
1.10995e-32
1.01212e-34
-6.91053e-37
3.918e-36
3.43178e-35
-1.95659e-33
1.87132e-32
1.52049e-33
1.37937e-35
7.38589e-33
8.94206e-33
2.14785e-33
1.83843e-33
2.99442e-34
2.09604e-35
6.40916e-34
1.21673e-33
2.62629e-35
-1.49026e-35
1.50956e-33
1.2878e-36
1.38958e-37
1.46833e-35
7.80003e-34
-1.58312e-34
-2.46464e-37
-1.36688e-42
3.56217e-39
2.39494e-41
1.54649e-37
4.91036e-37
1.52891e-34
7.8279e-37
7.74058e-38
4.35882e-35
4.49037e-35
4.44425e-35
-3.38751e-38
3.62428e-42
1.57624e-38
2.73766e-36
1.97956e-40
2.21462e-40
7.37102e-37
7.41285e-40
2.18248e-40
3.5724e-37
-9.48455e-38
-9.15055e-41
1.1348e-35
6.4548e-38
9.53905e-39
3.84335e-38
8.19798e-35
6.02681e-36
-5.75314e-37
4.43555e-35
5.70661e-35
4.53952e-38
-7.49251e-37
2.96459e-37
1.56505e-37
1.60955e-37
8.91651e-36
7.69613e-38
2.31234e-34
9.63123e-36
9.78364e-34
1.0271e-33
-1.2455e-37
3.69376e-40
4.71717e-38
2.48665e-34
1.30413e-35
4.23063e-35
1.07775e-36
1.21639e-33
-2.59097e-36
3.65224e-35
4.6746e-34
2.31907e-33
1.62311e-33
1.2431e-33
1.63514e-33