/*--------------------------------*- C++ -*----------------------------------*\
| =========                 |                                                 |
| \\      /  F ield         | OpenFOAM: The Open Source CFD Toolbox           |
|  \\    /   O peration     | Version:  2006                                  |
|   \\  /    A nd           | Website:  www.openfoam.com                      |
|    \\/     M anipulation  |                                                 |
\*---------------------------------------------------------------------------*/
FoamFile
{
    version     2.0;
    format      ascii;
    class       volScalarField;
    location    "20000";
    object      I1_46;
}
// * * * * * * * * * * * * * * * * * * * * * * * * * * * * * * * * * * * * * //

dimensions      [0 0 0 0 0 0 0];


internalField   nonuniform List<scalar> 
14751
(
0.0204774
0.0535731
0.0349311
0.0608499
0.0703035
0.136955
0.77022
0.341588
0.106328
0.0672485
0.0461825
0.0351749
0.0274119
0.0218683
0.0179638
0.0147594
0.0123346
0.0102539
0.00863578
0.00722297
0.00608015
0.00504753
0.00419214
0.003443
0.00282115
0.0022605
0.00177031
0.00132157
0.000910314
0.000522857
0.000152597
-0.000208321
-0.000567132
-0.000929839
-0.001307
-0.00170317
-0.00213171
-0.00259759
-0.00312315
-0.0037432
-0.00446585
-0.00532249
-0.00637993
-0.00774727
-0.00958622
-0.012379
-0.0167425
-0.0252639
-0.0473831
-0.314679
-0.0741228
-0.0339777
-0.022396
-0.0167779
-0.013589
-0.0114471
-0.00997833
-0.00884051
-0.00800891
-0.00735504
-0.00681561
-0.00637346
-0.00596978
-0.00559696
-0.0053101
-0.00505927
-0.00482723
-0.0046137
-0.00442094
-0.00425982
-0.00411683
-0.00399563
-0.00388176
-0.00376933
-0.0036559
-0.00354504
-0.00341443
-0.00331305
-0.00316468
-0.00306827
-0.00290046
-0.00276683
-0.00257564
-0.00237579
-0.002131
-0.00183355
-0.00147864
-0.00104022
-0.000510697
0.000151142
0.000978662
0.00196339
0.00338947
0.00483577
0.00726226
0.0100585
0.0159432
0.0133819
0.027898
0.707469
2.01254
2.06265
15.1121
3.20632
1.49206
0.967218
0.740912
0.577492
0.478857
0.402648
0.346656
0.299805
0.261246
0.229542
0.201613
0.178359
0.157509
0.139974
0.124038
0.110143
0.0967622
0.0844482
0.0727418
0.0620678
0.0517144
0.0419035
0.0323048
0.0229125
0.0135323
0.0040535
-0.00566577
-0.0157801
-0.0264242
-0.0379124
-0.0503559
-0.0642244
-0.0797165
-0.0977673
-0.118792
-0.144206
-0.176091
-0.215522
-0.270512
-0.345151
-0.46469
-0.672406
-1.15354
-3.2908
-4.24527
-1.37326
-0.83421
-0.61193
-0.48612
-0.408671
-0.354042
-0.314885
-0.284234
-0.261294
-0.241638
-0.226698
-0.213237
-0.201992
-0.192195
-0.183562
-0.176119
-0.169073
-0.162772
-0.156589
-0.151403
-0.146848
-0.14308
-0.139438
-0.135635
-0.131683
-0.12777
-0.122851
-0.118668
-0.112756
-0.107496
-0.100448
-0.0937908
-0.0854574
-0.076781
-0.0669543
-0.0559194
-0.0437677
-0.02986
-0.0143072
0.00401805
0.0255791
0.0501505
0.0830904
0.118022
0.170336
0.234317
0.34229
0.35441
0.671037
22.3766
138.263
394.923
39.6939
25.7092
18.5609
14.259
12.0153
10.2041
8.96334
7.95366
7.16262
6.47118
5.88054
5.37025
4.90072
4.49517
4.11084
3.77614
3.45995
3.17396
2.88273
2.59838
2.3075
2.02788
1.73943
1.44911
1.14796
0.835909
0.506401
0.155502
-0.222568
-0.634558
-1.08806
-1.59756
-2.17023
-2.83383
-3.6047
-4.52932
-5.64958
-7.06005
-8.91362
-11.3667
-15.0428
-20.6458
-31.2763
-57.1144
-230.951
-124.08
-52.0875
-33.9707
-25.4768
-20.7121
-17.566
-15.3913
-13.7372
-12.487
-11.4668
-10.6676
-9.95124
-9.3885
-8.86505
-8.41863
-8.02377
-7.66033
-7.32933
-7.01115
-6.71919
-6.42181
-6.15306
-5.90903
-5.69737
-5.49072
-5.27635
-5.05691
-4.83539
-4.58049
-4.34638
-4.06002
-3.79642
-3.4764
-3.17745
-2.83197
-2.4871
-2.11819
-1.72773
-1.31949
-0.876714
-0.409843
0.111902
0.695934
1.33039
2.14686
2.99308
4.26144
5.77088
8.26386
9.26976
19.4124
354.804
794.794
413.855
197.868
151.187
123.451
102.047
90.4757
80.4486
73.3141
67.3865
62.7181
58.6327
55.083
51.938
48.9285
46.3311
43.7117
41.3415
39.0098
36.8593
34.523
32.0418
29.2791
26.4493
23.314
19.9467
16.2155
12.1075
7.52111
2.36913
-3.46546
-10.1317
-17.8019
-26.7928
-37.3479
-50.0708
-65.5476
-85.014
-110.001
-143.587
-191.426
-262.912
-391.062
-657.646
-1659.33
-3672.99
-1019.03
-609.151
-442.159
-353.283
-296.276
-257.637
-228.872
-207.052
-189.366
-175.106
-162.847
-152.704
-143.369
-135.59
-128.284
-121.774
-115.79
-110.188
-104.895
-99.793
-94.986
-90.0455
-85.3364
-80.9718
-77.1299
-73.4057
-69.637
-65.8789
-62.1008
-58.0628
-54.286
-49.976
-46.0485
-41.5497
-37.4188
-32.8827
-28.4737
-23.8891
-19.1947
-14.4777
-9.50737
-4.38718
1.17174
7.27312
13.8109
22.1951
30.8868
44.418
60.4574
88.1888
106.542
288.677
4443.18
785.817
584.466
386.835
321.161
279.468
241.801
221.325
202.962
189.079
177.673
168.719
160.874
154.184
148.294
142.633
137.688
132.285
127.304
122.2
117.527
112.179
105.97
98.4848
90.4019
81.0186
70.443
58.2051
44.1998
27.9299
8.95682
-13.2956
-39.5848
-71.0329
-109.219
-155.952
-214.986
-290.797
-392.85
-535.644
-752.222
-1117.05
-1864.9
-4356.04
-13793.6
-3641.93
-2116.16
-1522.88
-1210.93
-1017.95
-886.95
-788.786
-713.49
-653.008
-604.748
-562.765
-527.521
-495.71
-467.519
-441.61
-419.315
-397.797
-378.344
-359.981
-342.215
-325.315
-309.564
-294.344
-278.545
-262.929
-248.169
-235.001
-222.3
-209.909
-197.986
-185.906
-173.124
-161.295
-148.209
-136.433
-123.135
-110.81
-97.4481
-84.5779
-71.2524
-57.5135
-43.5475
-28.8088
-13.4209
3.60214
22.6229
43.601
71.3964
101.692
152.188
214.378
337.747
464.845
3038.57
1273.73
567.501
478.46
365.317
319.635
288.687
257.823
240.93
225.197
213.235
203.326
195.309
188.297
182.368
177.259
172.237
167.808
162.81
158.004
152.33
146.063
138.828
131.322
122.33
112.651
101.297
88.4437
73.5194
56.2008
35.758
11.6027
-17.3176
-52.3704
-95.514
-150.083
-220.137
-313.599
-445.471
-645.722
-980.282
-1647.41
-3642.63
-11756.7
-3610.92
-2099.32
-1530.12
-1227.84
-1034.08
-909.049
-814.83
-742.151
-685.273
-637.529
-596.871
-562.748
-532.361
-505.776
-480.872
-458.378
-437.581
-418.902
-400.431
-383.738
-367.652
-352.34
-337.404
-323.079
-309.841
-296.329
-283.216
-269.97
-256.67
-243.396
-230.207
-217.588
-204.817
-191.626
-179.437
-165.845
-153.645
-139.643
-126.785
-112.583
-98.721
-84.2402
-68.9314
-53.0149
-35.6891
-16.9661
4.59523
29.819
59.263
100.808
149.764
241.206
367.392
700.956
1388.66
1389.48
463.279
294.62
264.369
217.47
195.898
179.854
163.328
153.599
144.511
137.428
131.475
126.634
122.21
118.343
114.911
111.618
108.663
105.334
102.051
98.1595
93.696
88.647
83.6826
77.9012
71.7537
64.6482
56.5894
47.1952
36.2878
23.2914
7.66487
-11.4482
-35.3279
-65.9203
-106.628
-162.883
-246.371
-380.531
-639.598
-1317.78
-4374.22
-2024.74
-1099.18
-779.948
-621.336
-525.979
-463.416
-416.562
-381.717
-354.366
-331.7
-312.444
-296.098
-281.807
-269.126
-257.28
-246.959
-237.387
-228.288
-219.625
-211.885
-204.354
-197.265
-190.386
-183.765
-177.447
-171.485
-165.634
-159.95
-154.776
-149.07
-142.709
-136.246
-129.961
-123.911
-117.666
-111.186
-105.164
-98.4011
-92.2286
-85.0885
-78.4876
-70.8442
-63.3894
-55.2327
-46.2555
-36.4861
-25.254
-12.4455
3.39973
23.326
48.6031
87.8734
140.262
255.633
465.297
1630.44
1801.05
471.258
154.126
113.313
105.179
89.8476
81.9966
75.5618
69.1439
64.9943
61.1039
58.0794
55.5722
53.4899
51.6562
50.0538
48.5802
47.1622
45.8659
44.4871
43.1162
41.5526
39.8789
38.0311
36.1219
33.8686
31.4134
28.5207
25.1988
21.2431
16.5159
10.7558
3.61851
-5.44005
-17.2874
-33.3314
-56.3748
-92.1767
-154.652
-291.453
-765.996
-992.715
-452.977
-300.906
-234.178
-195.379
-170.553
-153.007
-139.837
-129.449
-121.006
-113.97
-107.955
-102.595
-97.9005
-93.5009
-89.5245
-85.8246
-82.3614
-79.1476
-76.1288
-73.1818
-70.4376
-67.7985
-65.2968
-62.8901
-60.6228
-58.4056
-56.3275
-54.327
-52.3486
-50.4429
-48.4938
-46.5076
-44.5593
-42.7089
-40.9768
-39.2019
-37.3646
-35.6677
-33.7873
-32.1434
-30.2011
-28.4432
-26.3141
-24.1729
-21.6976
-18.7693
-15.3458
-11.0738
-5.71794
1.59041
11.7861
26.2628
51.9424
93.5659
219.424
649.924
500.503
267.736
154.827
35.7282
28.705
27.6412
24.4946
22.8471
21.3319
19.861
18.9277
18.0847
17.4824
17.0066
16.6549
16.3762
16.152
15.9582
15.7504
15.5484
15.2938
15.0197
14.6695
14.2521
13.7474
13.1835
12.4834
11.7016
10.7348
9.58189
8.17651
6.44639
4.26485
1.46624
-2.23586
-7.35168
-14.8347
-26.8611
-49.0942
-103.661
-287.254
-179.976
-103.541
-75.1937
-60.5986
-51.7344
-45.6121
-41.1098
-37.4988
-34.5557
-32.0858
-29.9256
-27.9584
-26.2006
-24.5746
-23.0561
-21.6156
-20.2421
-18.947
-17.723
-16.5278
-15.4099
-14.3345
-13.3095
-12.3404
-11.4214
-10.5483
-9.73044
-8.96053
-8.23644
-7.56184
-6.91883
-6.30289
-5.71105
-5.16693
-4.67039
-4.22978
-3.85325
-3.51523
-3.2344
-3.03087
-2.86628
-2.77886
-2.70474
-2.68632
-2.6612
-2.64719
-2.60036
-2.48206
-2.25184
-1.80839
-1.04542
0.304915
2.70453
6.96875
16.609
39.0904
163.004
108.34
59.9212
46.103
34.9152
-0.997159
-0.195289
0.218625
0.489693
0.659932
0.764796
0.894281
1.03104
1.18215
1.35482
1.53811
1.72824
1.91744
2.09972
2.26928
2.42047
2.55099
2.64832
2.71712
2.7475
2.73931
2.69303
2.62312
2.51609
2.38059
2.20042
1.97609
1.69001
1.33222
0.879996
0.296186
-0.484477
-1.58624
-3.29607
-6.45262
-14.149
-29.653
-15.9238
-9.40996
-6.49259
-4.74619
-3.48491
-2.50217
-1.66107
-0.908686
-0.219775
0.431987
1.0539
1.65906
2.24204
2.81865
3.37318
3.91956
4.44649
4.96083
5.45085
5.9239
6.38107
6.80761
7.20874
7.58644
7.93755
8.25693
8.53976
8.80092
9.02554
9.22395
9.39252
9.53482
9.64781
9.73363
9.7868
9.80063
9.7655
9.68716
9.53613
9.33143
9.09108
8.75809
8.42019
7.95698
7.48969
6.90527
6.27355
5.54729
4.72112
3.7791
2.66193
1.34995
-0.34711
-2.68303
-6.21925
-14.6343
-38.6786
-20.9619
-10.6946
-5.74894
-3.14679
-1.51812
-10.7933
-8.57889
-8.11471
-7.14122
-6.6179
-6.15097
-5.67431
-5.31824
-4.96444
-4.64966
-4.3588
-4.09334
-3.84787
-3.62274
-3.41986
-3.23572
-3.07491
-2.92777
-2.80531
-2.69937
-2.61064
-2.52919
-2.45083
-2.35798
-2.26123
-2.14032
-1.98671
-1.77885
-1.48969
-1.06806
-0.423674
0.624351
2.48828
6.33465
16.5611
34.4247
23.4027
17.138
14.4493
13.0821
12.3473
11.9421
11.7357
11.6621
11.6808
11.756
11.8696
12.0129
12.1841
12.3605
12.5528
12.744
12.9397
13.1282
13.307
13.4821
13.6445
13.7941
13.9249
14.0363
14.1324
14.2068
14.271
14.2961
14.3139
14.3105
14.29
14.24
14.1751
14.1041
14.0079
13.8947
13.7373
13.5407
13.326
13.0542
12.7442
12.4196
12.0124
11.6163
11.101
10.5903
9.934
9.24213
8.41419
7.41423
6.19851
4.6212
2.52786
-0.667869
-6.22876
-18.3153
-62.5166
-49.4588
-27.3096
-20.9363
-16.3972
-13.2617
-10.8586
-12.1693
-10.0767
-9.82504
-8.90196
-8.44486
-8.00419
-7.56164
-7.25393
-6.94563
-6.68552
-6.45516
-6.25482
-6.07074
-5.91051
-5.77167
-5.64285
-5.53662
-5.43394
-5.34631
-5.26399
-5.18458
-5.09627
-4.99915
-4.86542
-4.70843
-4.49121
-4.20002
-3.79
-3.20598
-2.32781
-0.937012
1.47185
6.2452
17.9645
38.7537
30.6248
23.0532
19.5506
17.6686
16.5297
15.8532
15.411
15.124
14.9459
14.8431
14.7972
14.7953
14.7899
14.8189
14.8584
14.9027
14.9451
14.9833
15.0239
15.0525
15.0668
15.0825
15.0724
15.058
15.0297
14.9894
14.9329
14.8651
14.782
14.6838
14.5766
14.4657
14.3387
14.196
14.0476
13.8984
13.7357
13.5275
13.2965
13.0746
12.816
12.5284
12.2425
11.8898
11.5637
11.1418
10.7322
10.1854
9.62052
8.91371
8.04254
6.945
5.39119
3.12939
-0.841111
-9.49344
-35.358
-43.659
-28.3947
-21.0022
-18.2452
-15.7686
-13.598
-11.9361
-11.1312
-9.44654
-9.39873
-8.67974
-8.37274
-8.05449
-7.73445
-7.52996
-7.32131
-7.15995
-7.02004
-6.90324
-6.80466
-6.72663
-6.65877
-6.59987
-6.55952
-6.51402
-6.48182
-6.44558
-6.40368
-6.34869
-6.27899
-6.16041
-6.01281
-5.79115
-5.47694
-5.01446
-4.32048
-3.22101
-1.34942
2.23147
10.4114
27.1034
27.8025
22.15
19.0882
17.3697
16.3654
15.7278
15.3031
15.0199
14.8083
14.6673
14.576
14.4944
14.4495
14.417
14.3911
14.3594
14.3222
14.2889
14.2497
14.2084
14.1565
14.0929
14.0296
13.9405
13.8455
13.7476
13.6393
13.5229
13.3965
13.2584
13.1186
12.9669
12.8264
12.6766
12.5105
12.3538
12.1954
12.0198
11.8282
11.6308
11.4336
11.2187
11.0022
10.7876
10.5279
10.2936
9.98544
9.71409
9.33124
8.92827
8.42391
7.76595
6.90223
5.59387
3.47941
-0.931029
-13.342
-31.1825
-22.5267
-18.1926
-15.4448
-14.3389
-13.1064
-11.7163
-10.7338
-9.58354
-8.29587
-8.38525
-7.87212
-7.70552
-7.50019
-7.29866
-7.19448
-7.08132
-7.00376
-6.94241
-6.90192
-6.87694
-6.86161
-6.8556
-6.85512
-6.86855
-6.87278
-6.88736
-6.89357
-6.89168
-6.87348
-6.83673
-6.75538
-6.64519
-6.46032
-6.18295
-5.73975
-5.04077
-3.86743
-1.69685
2.94436
13.3958
20.9434
18.7527
16.6374
15.366
14.5982
14.0862
13.7405
13.5005
13.3355
13.2192
13.1108
13.0229
12.9559
12.894
12.827
12.7679
12.7038
12.6295
12.5526
12.4704
12.3795
12.2776
12.1694
12.063
11.9447
11.8144
11.6756
11.537
11.396
11.2548
11.1013
10.9537
10.8
10.6497
10.5001
10.354
10.2076
10.0602
9.9003
9.74421
9.58603
9.44104
9.29027
9.12899
8.98526
8.81976
8.66912
8.47692
8.3189
8.07489
7.83481
7.52477
7.0992
6.49425
5.50009
3.68352
-0.990344
-14.0395
-16.2714
-13.7925
-12.5013
-11.4337
-11.0672
-10.5201
-9.65041
-9.11988
-8.0931
-7.13334
-7.30596
-6.96021
-6.88851
-6.77767
-6.6759
-6.64639
-6.60277
-6.58893
-6.58819
-6.60467
-6.62755
-6.65762
-6.69472
-6.73322
-6.78232
-6.82166
-6.86917
-6.90366
-6.93091
-6.94096
-6.9402
-6.89802
-6.82729
-6.68444
-6.46038
-6.08287
-5.44888
-4.29658
-1.95815
3.36785
11.8022
14.1544
13.4611
12.7616
12.2666
11.9497
11.7255
11.5454
11.427
11.3234
11.231
11.1579
11.0851
11.002
10.9346
10.8572
10.7713
10.6873
10.5925
10.487
10.3796
10.2723
10.1508
10.0197
9.89296
9.75815
9.62035
9.48068
9.33388
9.18668
9.04832
8.90403
8.75958
8.62029
8.48947
8.35884
8.22735
8.10379
7.97745
7.85333
7.73337
7.61679
7.51493
7.4157
7.31479
7.22512
7.13706
7.06045
6.95303
6.88062
6.75338
6.63943
6.48646
6.25082
5.90507
5.2296
3.76071
-0.908553
-9.06305
-9.62733
-9.24646
-8.96267
-8.62052
-8.59605
-8.4175
-7.86867
-7.62041
-6.80784
-6.09834
-6.31016
-6.08777
-6.08757
-6.04677
-6.01264
-6.03138
-6.03816
-6.06886
-6.10758
-6.1562
-6.20652
-6.26561
-6.32517
-6.38777
-6.4552
-6.5141
-6.5789
-6.62774
-6.66862
-6.69811
-6.72406
-6.70596
-6.6668
-6.57247
-6.40977
-6.09099
-5.53687
-4.45835
-2.05334
3.17324
8.52769
9.9385
10.0042
9.88144
9.74075
9.63002
9.53859
9.45186
9.3863
9.32489
9.25641
9.1807
9.11222
9.03498
8.94996
8.8636
8.77013
8.67147
8.57029
8.45578
8.33554
8.21791
8.09783
7.96672
7.83482
7.70124
7.56562
7.43105
7.30035
7.16744
7.03633
6.91054
6.78878
6.66583
6.55257
6.45124
6.34656
6.24205
6.14552
6.05435
5.96692
5.89371
5.82549
5.76058
5.70748
5.66268
5.62205
5.60323
5.55588
5.54356
5.50878
5.48397
5.43852
5.35343
5.1916
4.79139
3.63759
-0.653838
-5.45351
-6.31228
-6.551
-6.63157
-6.62002
-6.75403
-6.76738
-6.42406
-6.34811
-5.72346
-5.20116
-5.43632
-5.30174
-5.34595
-5.34889
-5.36035
-5.40889
-5.44656
-5.50104
-5.55891
-5.62293
-5.69054
-5.75959
-5.83
-5.89884
-5.96866
-6.03369
-6.09604
-6.1476
-6.19596
-6.2357
-6.2653
-6.26141
-6.24863
-6.1814
-6.05457
-5.8012
-5.32604
-4.31099
-1.93
2.53538
6.02627
7.19781
7.54272
7.64668
7.65934
7.64672
7.61431
7.57143
7.53144
7.47898
7.41567
7.3522
7.28268
7.19722
7.11498
7.02764
6.92813
6.82452
6.72284
6.61469
6.49693
6.37913
6.26478
6.14302
6.02324
5.90107
5.78208
5.66307
5.54548
5.42867
5.32113
5.2153
5.11474
5.01995
4.92645
4.84119
4.76579
4.68841
4.612
4.55182
4.49458
4.44641
4.40949
4.37633
4.35138
4.3437
4.32872
4.33767
4.34525
4.37189
4.38212
4.41605
4.4488
4.45994
4.42582
4.20785
3.24934
-0.383039
-3.49766
-4.37954
-4.80822
-5.03638
-5.16495
-5.36761
-5.47679
-5.26878
-5.29984
-4.81335
-4.43741
-4.67147
-4.59474
-4.66405
-4.69747
-4.73241
-4.79651
-4.84931
-4.91404
-4.98025
-5.04808
-5.11743
-5.18456
-5.2516
-5.312
-5.37716
-5.43361
-5.4886
-5.53521
-5.5754
-5.61058
-5.63489
-5.63763
-5.6289
-5.57419
-5.47347
-5.26665
-4.83674
-3.86333
-1.62794
1.87183
4.29969
5.30047
5.69787
5.87053
5.93655
5.96317
5.96308
5.9375
5.90206
5.85742
5.79837
5.73072
5.66462
5.58794
5.49881
5.4122
5.32296
5.22625
5.12379
5.0233
4.92174
4.81387
4.71089
4.6046
4.4973
4.39457
4.29389
4.19446
4.09869
4.00565
3.91441
3.83232
3.75142
3.67743
3.61032
3.54712
3.48625
3.43125
3.38228
3.33998
3.30601
3.27879
3.26008
3.24855
3.2446
3.25171
3.26725
3.28732
3.31579
3.36629
3.41316
3.47554
3.53848
3.604
3.64443
3.53437
2.66616
-0.195795
-2.35999
-3.15987
-3.61756
-3.88598
-4.068
-4.2951
-4.45175
-4.33794
-4.43203
-4.03845
-3.77349
-3.99231
-3.95593
-4.04102
-4.08659
-4.13418
-4.20299
-4.26022
-4.32514
-4.38604
-4.44865
-4.50856
-4.56701
-4.61974
-4.67031
-4.72323
-4.7655
-4.80409
-4.83795
-4.86492
-4.88776
-4.901
-4.89372
-4.88154
-4.83426
-4.73886
-4.53909
-4.13939
-3.22636
-1.26699
1.34238
3.0824
3.90362
4.27746
4.44967
4.53321
4.56553
4.56692
4.54558
4.51235
4.46986
4.41932
4.35577
4.28711
4.21804
4.14018
4.0568
3.97383
3.88757
3.79989
3.70909
3.62014
3.53136
3.44236
3.35396
3.2666
3.18129
3.09914
3.01993
2.94252
2.87052
2.80174
2.73659
2.67825
2.62069
2.57051
2.52525
2.48423
2.44525
2.41283
2.38829
2.36955
2.35655
2.35187
2.35216
2.36246
2.37594
2.40241
2.43903
2.47296
2.53093
2.58746
2.66408
2.7465
2.82774
2.8989
2.81818
2.04764
-0.0823482
-1.64832
-2.32587
-2.7523
-3.01987
-3.22605
-3.44969
-3.6293
-3.57819
-3.70427
-3.37143
-3.19035
-3.38908
-3.38055
-3.46844
-3.516
-3.56712
-3.63119
-3.68505
-3.74124
-3.79185
-3.84551
-3.89178
-3.9331
-3.97207
-4.00839
-4.04137
-4.0654
-4.08701
-4.10293
-4.11401
-4.11992
-4.1174
-4.10132
-4.0739
-4.0197
-3.92381
-3.73468
-3.35877
-2.52301
-0.933947
0.948656
2.20452
2.84057
3.15839
3.31449
3.38836
3.4175
3.41699
3.39938
3.365
3.31973
3.27229
3.21768
3.15396
3.09055
3.02392
2.95237
2.88057
2.80816
2.7331
2.65684
2.58213
2.51007
2.43888
2.36746
2.29832
2.23187
2.16831
2.10636
2.04836
1.99288
1.94233
1.89297
1.84947
1.81019
1.7737
1.74066
1.71167
1.68821
1.66913
1.6551
1.6458
1.64201
1.64574
1.65374
1.66822
1.68931
1.71565
1.75573
1.79766
1.85004
1.91068
1.98802
2.06855
2.15058
2.22239
2.15531
1.51263
-0.0199527
-1.16826
-1.73167
-2.10311
-2.35417
-2.55897
-2.77175
-2.95521
-2.94455
-3.08174
-2.79459
-2.67497
-2.85164
-2.85812
-2.94055
-2.98426
-3.03331
-3.09095
-3.13367
-3.17722
-3.21782
-3.25567
-3.28419
-3.31091
-3.33404
-3.35182
-3.36585
-3.37108
-3.37683
-3.3768
-3.37062
-3.35863
-3.34193
-3.31215
-3.27615
-3.21468
-3.11218
-2.92928
-2.57587
-1.8706
-0.663056
0.659889
1.55699
2.03954
2.28356
2.40727
2.4663
2.49095
2.48689
2.46467
2.4367
2.39766
2.35066
2.30355
2.25004
2.19327
2.13652
2.07823
2.01777
1.95734
1.90026
1.83987
1.77989
1.72215
1.66631
1.61144
1.55837
1.50792
1.45997
1.4144
1.3714
1.33049
1.29361
1.25981
1.22748
1.19958
1.17485
1.15295
1.13309
1.11795
1.10759
1.10076
1.0983
1.10003
1.10705
1.1182
1.13495
1.15735
1.18429
1.21987
1.26095
1.31009
1.36502
1.43413
1.50547
1.58117
1.64142
1.58065
1.08924
0.0174906
-0.828479
-1.2829
-1.60222
-1.83031
-2.02129
-2.21437
-2.39114
-2.40718
-2.54576
-2.29173
-2.21592
-2.36585
-2.3831
-2.45471
-2.49423
-2.53762
-2.58148
-2.61338
-2.64447
-2.6726
-2.69221
-2.70666
-2.71918
-2.72559
-2.72822
-2.72468
-2.71627
-2.70785
-2.69145
-2.66994
-2.64663
-2.61816
-2.58148
-2.53448
-2.46314
-2.36066
-2.19376
-1.88883
-1.32382
-0.455524
0.448646
1.07557
1.42533
1.61108
1.70207
1.74449
1.75709
1.75037
1.73098
1.70276
1.67005
1.63093
1.58921
1.54559
1.50025
1.45377
1.40614
1.35965
1.31078
1.26532
1.22005
1.17452
1.1313
1.08907
1.04781
1.00837
0.971701
0.936351
0.903199
0.87249
0.843188
0.816197
0.792633
0.770878
0.751622
0.734692
0.720322
0.708583
0.699329
0.693066
0.691093
0.692164
0.696117
0.704378
0.716666
0.731896
0.752455
0.7781
0.808157
0.844494
0.887849
0.934618
0.992041
1.05457
1.11792
1.16335
1.11561
0.766275
0.034556
-0.579902
-0.942441
-1.20913
-1.40619
-1.57851
-1.75111
-1.91688
-1.94609
-2.07903
-1.85002
-1.80409
-1.93236
-1.95174
-2.01214
-2.04565
-2.07958
-2.11028
-2.13236
-2.15205
-2.16587
-2.17108
-2.17426
-2.17388
-2.16655
-2.15414
-2.1388
-2.12029
-2.09819
-2.07145
-2.04342
-2.0117
-1.97683
-1.93332
-1.87905
-1.81049
-1.71654
-1.56682
-1.31688
-0.898882
-0.303083
0.295947
0.719785
0.964496
1.09572
1.16205
1.18734
1.19291
1.18451
1.16679
1.14209
1.11385
1.08186
1.04923
1.01363
0.977718
0.942236
0.90612
0.870271
0.834067
0.798104
0.765283
0.731432
0.698927
0.668859
0.63926
0.611061
0.584101
0.559168
0.535521
0.513877
0.494299
0.475315
0.458812
0.443946
0.430695
0.419845
0.410121
0.40337
0.398439
0.395347
0.395159
0.397257
0.402393
0.410098
0.420782
0.434816
0.45193
0.473356
0.498529
0.528429
0.563918
0.603048
0.649985
0.699787
0.749478
0.786551
0.754834
0.521196
0.0397744
-0.395795
-0.677734
-0.894178
-1.06138
-1.21213
-1.36287
-1.50999
-1.54996
-1.67326
-1.46329
-1.43897
-1.54506
-1.56409
-1.61366
-1.63916
-1.66509
-1.68457
-1.6968
-1.70613
-1.70632
-1.70335
-1.69697
-1.68488
-1.66716
-1.64659
-1.62423
-1.598
-1.56932
-1.5387
-1.50473
-1.46941
-1.43119
-1.38579
-1.33372
-1.27242
-1.18882
-1.06691
-0.876562
-0.58365
-0.194307
0.187697
0.462259
0.625673
0.711749
0.75473
0.771876
0.771418
0.761342
0.746013
0.725625
0.702817
0.677767
0.651349
0.625059
0.597561
0.570571
0.543711
0.517533
0.491563
0.465347
0.44084
0.417562
0.394197
0.372417
0.351898
0.332116
0.313388
0.296001
0.27963
0.26458
0.251046
0.238592
0.22714
0.217403
0.208414
0.201094
0.195078
0.190605
0.187997
0.186792
0.187347
0.189787
0.194199
0.200699
0.209413
0.220747
0.234339
0.251241
0.271061
0.294282
0.322258
0.353219
0.389339
0.429072
0.468581
0.498152
0.482097
0.339147
0.0381229
-0.260142
-0.470503
-0.641338
-0.779126
-0.90676
-1.03484
-1.16357
-1.21019
-1.31839
-1.12803
-1.11936
-1.20553
-1.22251
-1.26025
-1.27949
-1.29588
-1.30585
-1.31061
-1.30978
-1.30412
-1.29531
-1.28043
-1.26136
-1.23886
-1.21418
-1.18719
-1.15803
-1.1275
-1.09433
-1.05975
-1.02525
-0.98761
-0.946276
-0.901558
-0.848272
-0.779913
-0.686371
-0.55243
-0.360099
-0.118961
0.112283
0.280657
0.381847
0.436023
0.460454
0.468322
0.465829
0.456002
0.44226
0.426771
0.408833
0.389968
0.370612
0.35082
0.330629
0.311177
0.291687
0.272771
0.254419
0.236609
0.219199
0.202751
0.187025
0.171818
0.157533
0.144191
0.13141
0.119598
0.108555
0.0983863
0.0889837
0.0804815
0.0728831
0.066129
0.0602318
0.0552522
0.0514481
0.0486091
0.0469021
0.0463644
0.0470142
0.0489516
0.0522884
0.0571218
0.0635311
0.071818
0.0819946
0.0943051
0.109095
0.126512
0.147164
0.170727
0.197775
0.22805
0.259053
0.28411
0.281792
0.205445
0.0312419
-0.160537
-0.310535
-0.43961
-0.549236
-0.655102
-0.76156
-0.871046
-0.917115
-1.01003
-0.839257
-0.842591
-0.909091
-0.923881
-0.953016
-0.965024
-0.973468
-0.978166
-0.976185
-0.970506
-0.960831
-0.945971
-0.927671
-0.906229
-0.882056
-0.856347
-0.828279
-0.799606
-0.769463
-0.738415
-0.708171
-0.675914
-0.643798
-0.608737
-0.571543
-0.528935
-0.478468
-0.412769
-0.325242
-0.207345
-0.06859
0.0615361
0.156567
0.213522
0.243261
0.255747
0.257108
0.252651
0.244448
0.233112
0.220624
0.20755
0.193632
0.179606
0.165683
0.151704
0.137787
0.124368
0.111253
0.098656
0.0865525
0.0747954
0.0635557
0.0529211
0.0427445
0.0331531
0.0240812
0.0155749
0.00757675
0.000164544
-0.00670745
-0.0130533
-0.0187826
-0.0240064
-0.0286847
-0.0327354
-0.036154
-0.0388375
-0.0408814
-0.0420919
-0.042606
-0.0423506
-0.041246
-0.0391601
-0.0360911
-0.0319233
-0.0264883
-0.0197114
-0.0113381
-0.00118032
0.0109649
0.0253933
0.0423047
0.0620044
0.0841179
0.108205
0.13
0.138416
0.108417
0.0212828
-0.0895082
-0.188543
-0.280979
-0.365302
-0.449107
-0.534965
-0.624791
-0.668715
-0.747529
-0.595325
-0.605049
-0.655379
-0.668605
-0.688799
-0.696071
-0.700483
-0.700322
-0.694973
-0.68602
-0.67241
-0.656468
-0.637779
-0.616108
-0.593717
-0.569382
-0.543789
-0.518004
-0.491541
-0.465662
-0.439577
-0.413741
-0.387572
-0.360274
-0.332353
-0.302002
-0.267139
-0.225136
-0.172912
-0.108015
-0.0362519
0.0288652
0.0756353
0.102918
0.115661
0.11942
0.117477
0.111866
0.104552
0.0960252
0.0866946
0.0769516
0.0672412
0.05737
0.0476211
0.0381535
0.0288751
0.0198143
0.0110823
0.00264424
-0.00545479
-0.0132169
-0.0206243
-0.0276902
-0.0344012
-0.0408038
-0.0467435
-0.052505
-0.0578719
-0.0628164
-0.0674226
-0.0717681
-0.0757506
-0.0793992
-0.0827626
-0.0857283
-0.0880406
-0.0900972
-0.0917757
-0.0930182
-0.0937238
-0.0939738
-0.0936743
-0.0929525
-0.0914957
-0.0891918
-0.0863007
-0.0823248
-0.0774648
-0.0713452
-0.0636523
-0.0543717
-0.0430795
-0.0297928
-0.0139067
0.0042406
0.0235501
0.0392526
0.0395363
0.0107977
-0.0407066
-0.0980279
-0.158749
-0.219485
-0.283075
-0.349744
-0.42125
-0.462324
-0.525153
-0.393438
-0.406384
-0.443383
-0.453699
-0.467521
-0.471806
-0.472849
-0.469302
-0.462261
-0.452201
-0.43955
-0.424181
-0.406697
-0.388295
-0.368271
-0.347598
-0.326691
-0.305671
-0.284746
-0.264556
-0.244559
-0.225148
-0.206037
-0.186972
-0.168023
-0.148344
-0.12695
-0.103606
-0.0768502
-0.0469085
-0.0165416
0.00906825
0.0260087
0.0344573
0.036684
0.0349056
0.0308186
0.0253935
0.0191466
0.0125396
0.0057463
-0.00107288
-0.00784905
-0.0145382
-0.0210476
-0.0273593
-0.0334764
-0.039506
-0.0451633
-0.0507382
-0.0559846
-0.061044
-0.0658947
-0.0705611
-0.0749319
-0.0791614
-0.0831241
-0.0868175
-0.0905473
-0.0940105
-0.0971932
-0.100181
-0.103032
-0.105603
-0.108133
-0.110549
-0.112321
-0.113875
-0.115441
-0.116723
-0.117938
-0.118511
-0.119032
-0.119261
-0.119043
-0.118589
-0.11753
-0.116064
-0.113746
-0.110925
-0.106989
-0.101895
-0.0950773
-0.0868017
-0.0762437
-0.0626865
-0.045987
-0.026243
-0.00744399
0.00062911
-0.00929478
-0.0335355
-0.0676818
-0.107686
-0.152611
-0.20223
-0.256354
-0.292535
-0.3412
-0.228921
-0.24398
-0.269634
-0.277805
-0.286641
-0.288305
-0.286881
-0.282596
-0.275818
-0.266659
-0.255642
-0.242674
-0.228902
-0.214129
-0.198452
-0.182833
-0.167553
-0.15226
-0.137582
-0.123409
-0.109948
-0.0970664
-0.0848188
-0.0732388
-0.0621235
-0.0512662
-0.0407894
-0.0306015
-0.0208208
-0.0120594
-0.005382
-0.00185338
-0.0016009
-0.00385692
-0.00765349
-0.0122698
-0.0172058
-0.022321
-0.0273985
-0.0324119
-0.0373081
-0.0421332
-0.0466338
-0.0511149
-0.0554498
-0.0596259
-0.0635813
-0.0675097
-0.0711499
-0.0746679
-0.0781953
-0.0816421
-0.0848182
-0.087953
-0.0908124
-0.093601
-0.0964673
-0.0989685
-0.101405
-0.103837
-0.106205
-0.108415
-0.110558
-0.112378
-0.114228
-0.115901
-0.11772
-0.119206
-0.120571
-0.121901
-0.123209
-0.12429
-0.125179
-0.126193
-0.126977
-0.127784
-0.128248
-0.128369
-0.128367
-0.127609
-0.126583
-0.124802
-0.121992
-0.117461
-0.111011
-0.101483
-0.0872982
-0.0660962
-0.0376442
-0.00831762
0.00915995
0.00971123
-0.00289082
-0.0248722
-0.0536999
-0.0877702
-0.126117
-0.156605
-0.192709
-0.0989856
-0.114315
-0.130866
-0.137099
-0.141978
-0.142101
-0.140094
-0.13616
-0.130334
-0.123043
-0.114623
-0.105659
-0.0958994
-0.0857769
-0.0758168
-0.0658722
-0.0563067
-0.0470875
-0.0385242
-0.0304774
-0.0230655
-0.0163261
-0.0102228
-0.00475391
9.3122e-06
0.00396076
0.00690229
0.00847144
0.00816356
0.00544735
0.000197962
-0.00687586
-0.0145269
-0.0217934
-0.028179
-0.033876
-0.03886
-0.0433145
-0.0474195
-0.0512132
-0.0547385
-0.0581997
-0.0612175
-0.0641976
-0.0671855
-0.0698843
-0.0725792
-0.0751795
-0.077795
-0.0800588
-0.0823165
-0.0846036
-0.0868754
-0.0889448
-0.0911906
-0.0930218
-0.0951384
-0.0970384
-0.0986898
-0.100611
-0.10207
-0.103835
-0.10551
-0.106881
-0.108337
-0.109834
-0.111132
-0.112592
-0.113679
-0.115093
-0.116187
-0.117827
-0.119075
-0.120408
-0.12206
-0.123247
-0.124823
-0.126008
-0.127566
-0.128697
-0.129591
-0.130089
-0.129945
-0.128582
-0.12531
-0.118968
-0.107579
-0.0871382
-0.055171
-0.0154516
0.0182392
0.0361855
0.0401932
0.0329738
0.0182447
-0.00229372
-0.0270455
-0.0512775
-0.0758089
0.000140287
-0.0138565
-0.0229848
-0.0275065
-0.0295382
-0.029111
-0.0271669
-0.0239277
-0.0198329
-0.0153297
-0.0104849
-0.00546761
-0.000501834
0.0043399
0.00888584
0.0131245
0.0169337
0.0202892
0.0232337
0.0257077
0.0277683
0.029378
0.0305394
0.0311106
0.0311436
0.0303757
0.0285156
0.0252074
0.0198462
0.0121362
0.00239115
-0.00821272
-0.0182062
-0.0267457
-0.0336589
-0.0391481
-0.0437194
-0.0474489
-0.0507767
-0.0535344
-0.0561629
-0.0586062
-0.0609774
-0.0629179
-0.0650878
-0.0671497
-0.0690354
-0.0707081
-0.0726106
-0.074513
-0.0761358
-0.0777773
-0.07943
-0.0809076
-0.0824132
-0.0840684
-0.0855095
-0.0869747
-0.088315
-0.0896344
-0.0909391
-0.0920894
-0.0932381
-0.0945165
-0.095628
-0.096934
-0.0979407
-0.0990565
-0.10015
-0.101402
-0.102544
-0.103928
-0.1055
-0.107023
-0.108613
-0.110545
-0.112395
-0.114591
-0.116669
-0.119106
-0.121356
-0.123397
-0.125154
-0.125676
-0.124962
-0.121641
-0.112595
-0.0944688
-0.0632199
-0.0205075
0.0209455
0.0497964
0.0657771
0.0704372
0.0672213
0.0581043
0.0451448
0.0273206
0.0126264
0.072682
0.060837
0.0575971
0.0546651
0.0546733
0.0554837
0.0571836
0.0591014
0.0609936
0.0626323
0.0638368
0.0646132
0.0649014
0.0647099
0.0640118
0.062904
0.0613648
0.0596119
0.057514
0.0553277
0.0530535
0.0505656
0.0478746
0.045021
0.041917
0.0382233
0.0338483
0.0283864
0.0213509
0.0126913
0.00272429
-0.00746977
-0.0167707
-0.0244283
-0.0305157
-0.0351805
-0.0389468
-0.0420553
-0.0445982
-0.0467887
-0.0488491
-0.0506483
-0.0525989
-0.0541467
-0.0557078
-0.057363
-0.0589716
-0.0603094
-0.0617889
-0.063243
-0.0645854
-0.0660786
-0.0673102
-0.0687041
-0.069895
-0.0711045
-0.0721438
-0.0733008
-0.074442
-0.0753254
-0.076534
-0.0775175
-0.0782241
-0.079262
-0.0800699
-0.0808017
-0.0816526
-0.0824878
-0.0834819
-0.0844735
-0.085523
-0.0867148
-0.0879669
-0.0895803
-0.091113
-0.0928839
-0.0950947
-0.0977363
-0.100082
-0.102879
-0.105785
-0.108667
-0.111609
-0.11424
-0.114776
-0.113597
-0.107374
-0.0921034
-0.0640479
-0.023527
0.0196294
0.0541549
0.0777944
0.0912213
0.0971869
0.0973745
0.0943645
0.0829307
0.0766591
0.12267
0.113851
0.114982
0.113562
0.115381
0.116346
0.117506
0.118162
0.11784
0.116644
0.114393
0.111327
0.107214
0.102305
0.096939
0.0910076
0.0849638
0.0788766
0.0728908
0.0668941
0.0610976
0.0557479
0.0504119
0.0454146
0.0404607
0.0354758
0.0301954
0.0243318
0.0177361
0.0102539
0.00218963
-0.00576652
-0.0128854
-0.0187959
-0.0234095
-0.0270822
-0.0299286
-0.0322819
-0.0343807
-0.0362187
-0.0379301
-0.0395165
-0.0410102
-0.0425425
-0.0438658
-0.0452698
-0.0466058
-0.0479735
-0.049262
-0.0504781
-0.0516698
-0.0529161
-0.0540285
-0.0551088
-0.056231
-0.0571734
-0.0581919
-0.0590426
-0.0598614
-0.0607347