/*--------------------------------*- C++ -*----------------------------------*\
| =========                 |                                                 |
| \\      /  F ield         | OpenFOAM: The Open Source CFD Toolbox           |
|  \\    /   O peration     | Version:  2006                                  |
|   \\  /    A nd           | Website:  www.openfoam.com                      |
|    \\/     M anipulation  |                                                 |
\*---------------------------------------------------------------------------*/
FoamFile
{
    version     2.0;
    format      ascii;
    class       volScalarField;
    location    "20000";
    object      I1_45;
}
// * * * * * * * * * * * * * * * * * * * * * * * * * * * * * * * * * * * * * //

dimensions      [0 0 0 0 0 0 0];


internalField   nonuniform List<scalar> 
14751
(
-0.0204774
-0.0535731
-0.0349312
-0.0608499
-0.0703035
-0.136955
-0.77022
-0.341588
-0.106328
-0.0672485
-0.0461824
-0.0351749
-0.0274119
-0.0218683
-0.0179637
-0.0147593
-0.0123345
-0.0102539
-0.00863575
-0.00722294
-0.00608013
-0.00504751
-0.00419212
-0.00344299
-0.00282114
-0.00226049
-0.0017703
-0.00132156
-0.000910308
-0.000522851
-0.000152593
0.000208325
0.000567136
0.000929843
0.001307
0.00170317
0.00213171
0.00259759
0.00312315
0.0037432
0.00446585
0.00532249
0.00637994
0.00774727
0.00958622
0.012379
0.0167425
0.0252639
0.0473831
0.314679
0.0741228
0.0339777
0.022396
0.0167779
0.013589
0.0114471
0.00997833
0.0088405
0.00800891
0.00735504
0.00681561
0.00637346
0.00596978
0.00559696
0.0053101
0.00505927
0.00482723
0.00461369
0.00442094
0.00425982
0.00411682
0.00399562
0.00388176
0.00376933
0.00365589
0.00354503
0.00341442
0.00331305
0.00316468
0.00306826
0.00290045
0.00276682
0.00257564
0.00237579
0.002131
0.00183355
0.00147864
0.00104023
0.000510707
-0.000151132
-0.00097865
-0.00196338
-0.00338945
-0.00483575
-0.00726225
-0.0100584
-0.0159432
-0.0133819
-0.0278979
-0.70747
-2.01254
-2.06265
-15.1121
-3.20632
-1.49206
-0.967218
-0.740912
-0.577493
-0.478858
-0.402649
-0.346656
-0.299806
-0.261247
-0.229543
-0.201614
-0.178359
-0.157509
-0.139974
-0.124038
-0.110143
-0.0967626
-0.0844486
-0.0727421
-0.0620681
-0.0517147
-0.0419038
-0.032305
-0.0229127
-0.0135325
-0.00405368
0.0056656
0.01578
0.0264241
0.0379123
0.0503558
0.0642243
0.0797164
0.0977672
0.118792
0.144206
0.176091
0.215522
0.270512
0.345151
0.46469
0.672405
1.15354
3.2908
4.24527
1.37326
0.83421
0.61193
0.48612
0.408671
0.354042
0.314885
0.284234
0.261294
0.241638
0.226697
0.213237
0.201992
0.192195
0.183562
0.176119
0.169073
0.162771
0.156589
0.151403
0.146848
0.14308
0.139437
0.135634
0.131682
0.12777
0.122851
0.118668
0.112756
0.107496
0.100448
0.0937906
0.085457
0.0767806
0.066954
0.0559191
0.0437673
0.0298596
0.0143068
-0.00401837
-0.0255795
-0.0501509
-0.0830907
-0.118022
-0.170336
-0.234318
-0.34229
-0.354411
-0.671036
-22.3766
-138.263
-394.922
-39.694
-25.7092
-18.561
-14.259
-12.0153
-10.2041
-8.96337
-7.95369
-7.16264
-6.4712
-5.88057
-5.37028
-4.90074
-4.49519
-4.11086
-3.77615
-3.45997
-3.17397
-2.88274
-2.59839
-2.30751
-2.02789
-1.73943
-1.44912
-1.14796
-0.835913
-0.506404
-0.155505
0.222566
0.634556
1.08806
1.59756
2.17023
2.83383
3.6047
4.52932
5.64958
7.06005
8.91362
11.3667
15.0428
20.6458
31.2763
57.1144
230.951
124.08
52.0875
33.9707
25.4768
20.7121
17.566
15.3913
13.7372
12.487
11.4668
10.6676
9.95124
9.3885
8.86505
8.41863
8.02378
7.66033
7.32934
7.01116
6.71919
6.42181
6.15307
5.90903
5.69737
5.49072
5.27636
5.05691
4.8354
4.58049
4.34638
4.06002
3.79643
3.47641
3.17745
2.83197
2.4871
2.11819
1.72773
1.31949
0.876713
0.40984
-0.111905
-0.695938
-1.33039
-2.14686
-2.99309
-4.26144
-5.77089
-8.26386
-9.26979
-19.4124
-354.804
-794.795
-413.855
-197.869
-151.188
-123.452
-102.048
-90.476
-80.4488
-73.3143
-67.3867
-62.7184
-58.6329
-55.0831
-51.9382
-48.9286
-46.3312
-43.7119
-41.3416
-39.0099
-36.8594
-34.5232
-32.0419
-29.2792
-26.4494
-23.3141
-19.9467
-16.2155
-12.1076
-7.52113
-2.36915
3.46545
10.1317
17.8019
26.7928
37.3479
50.0709
65.5476
85.014
110.001
143.587
191.426
262.912
391.062
657.646
1659.33
3672.99
1019.03
609.151
442.159
353.283
296.276
257.637
228.872
207.052
189.366
175.106
162.847
152.704
143.369
135.59
128.284
121.774
115.79
110.188
104.895
99.793
94.986
90.0455
85.3364
80.9719
77.1299
73.4057
69.6371
65.8789
62.1008
58.0628
54.286
49.9761
46.0486
41.5497
37.4189
32.8827
28.4737
23.8892
19.1948
14.4777
9.50741
4.3872
-1.1717
-7.27311
-13.8109
-22.195
-30.8869
-44.4179
-60.4574
-88.1887
-106.542
-288.678
-4443.16
-785.822
-584.466
-386.836
-321.162
-279.469
-241.802
-221.326
-202.963
-189.08
-177.674
-168.72
-160.875
-154.185
-148.294
-142.634
-137.689
-132.285
-127.304
-122.201
-117.527
-112.179
-105.969
-98.4846
-90.4016
-81.0183
-70.4427
-58.2048
-44.1995
-27.9296
-8.95653
13.2959
39.585
71.0331
109.22
155.952
214.986
290.797
392.85
535.644
752.222
1117.05
1864.9
4356.04
13793.6
3641.93
2116.16
1522.88
1210.93
1017.95
886.951
788.787
713.491
653.008
604.748
562.765
527.521
495.711
467.519
441.611
419.315
397.797
378.345
359.982
342.215
325.315
309.564
294.344
278.545
262.929
248.169
235.001
222.3
209.909
197.986
185.906
173.123
161.295
148.208
136.433
123.135
110.81
97.448
84.5778
71.2523
57.5133
43.5473
28.8087
13.4208
-3.60223
-22.623
-43.6012
-71.3965
-101.692
-152.188
-214.378
-337.747
-464.845
-3038.6
-1273.72
-567.506
-478.457
-365.317
-319.635
-288.686
-257.822
-240.929
-225.196
-213.234
-203.325
-195.308
-188.295
-182.367
-177.257
-172.235
-167.806
-162.809
-158.002
-152.328
-146.061
-138.826
-131.32
-122.328
-112.65
-101.296
-88.4426
-73.5184
-56.1998
-35.7573
-11.6021
17.3181
52.3708
95.5143
150.083
220.137
313.599
445.471
645.722
980.282
1647.41
3642.63
11756.7
3610.92
2099.33
1530.13
1227.84
1034.08
909.051
814.832
742.153
685.275
637.531
596.873
562.75
532.363
505.778
480.874
458.38
437.583
418.903
400.433
383.74
367.654
352.341
337.405
323.08
309.843
296.331
283.217
269.971
256.672
243.397
230.208
217.589
204.818
191.626
179.438
165.845
153.646
139.644
126.785
112.584
98.7215
84.2406
68.9318
53.0152
35.6894
16.9663
-4.59506
-29.8189
-59.263
-100.808
-149.764
-241.207
-367.392
-700.957
-1388.66
-1389.5
-463.27
-294.624
-264.365
-217.47
-195.897
-179.852
-163.327
-153.597
-144.51
-137.426
-131.474
-126.633
-122.209
-118.342
-114.91
-111.617
-108.662
-105.334
-102.05
-98.159
-93.6959
-88.6474
-83.6829
-77.9017
-71.7541
-64.6487
-56.5898
-47.1957
-36.2882
-23.2917
-7.66515
11.448
35.3278
65.9202
106.628
162.883
246.371
380.532
639.599
1317.78
4374.22
2024.74
1099.19
779.949
621.337
525.98
463.417
416.563
381.717
354.367
331.701
312.444
296.098
281.807
269.126
257.28
246.959
237.387
228.288
219.625
211.885
204.354
197.265
190.386
183.765
177.447
171.485
165.634
159.95
154.776
149.071
142.71
136.246
129.962
123.911
117.666
111.186
105.164
98.4014
92.2291
85.0889
78.4881
70.8445
63.3898
55.233
46.2558
36.4863
25.2542
12.4456
-3.39962
-23.326
-48.6031
-87.8735
-140.261
-255.634
-465.296
-1630.44
-1801.04
-471.27
-154.122
-113.317
-105.178
-89.8484
-81.9971
-75.562
-69.1446
-64.9948
-61.1047
-58.0801
-55.573
-53.4907
-51.657
-50.0547
-48.581
-47.1632
-45.8669
-44.4881
-43.1171
-41.5535
-39.8796
-38.0317
-36.1224
-33.8691
-31.4138
-28.5211
-25.1991
-21.2434
-16.5161
-10.756
-3.6186
5.44002
17.2874
33.3315
56.3749
92.1769
154.653
291.453
765.997
992.717
452.978
300.906
234.178
195.379
170.553
153.007
139.836
129.449
121.006
113.97
107.955
102.595
97.9004
93.5007
89.5243
85.8244
82.3612
79.1474
76.1286
73.1816
70.4374
67.7983
65.2966
62.8899
60.6226
58.4055
56.3273
54.3268
52.3485
50.4427
48.4936
46.5074
44.5591
42.7087
40.9767
39.2017
37.3644
35.6675
33.7871
32.1432
30.2009
28.4431
26.3139
24.1728
21.6975
18.7692
15.3457
11.0737
5.71787
-1.59043
-11.7861
-26.2628
-51.9423
-93.5652
-219.424
-649.919
-500.504
-267.731
-154.834
-35.7266
-28.7063
-27.6407
-24.4949
-22.8473
-21.332
-19.8613
-18.9279
-18.085
-17.4826
-17.0068
-16.6551
-16.3764
-16.1523
-15.9584
-15.7506
-15.5485
-15.2939
-15.0199
-14.6696
-14.2522
-13.7474
-13.1835
-12.4834
-11.7016
-10.7348
-9.58192
-8.17653
-6.44639
-4.26485
-1.46623
2.23587
7.35169
14.8347
26.8612
49.0943
103.661
287.254
179.976
103.541
75.1938
60.5985
51.7344
45.6121
41.1098
37.4988
34.5556
32.0857
29.9256
27.9584
26.2005
24.5746
23.0561
21.6156
20.2421
18.9469
17.723
16.5278
15.4099
14.3345
13.3095
12.3404
11.4214
10.5483
9.73043
8.96052
8.23643
7.56183
6.91883
6.30289
5.71105
5.16692
4.67038
4.22978
3.85325
3.51523
3.2344
3.03087
2.86628
2.77886
2.70474
2.68632
2.6612
2.64719
2.60036
2.48206
2.25184
1.80839
1.04542
-0.304911
-2.70452
-6.96872
-16.609
-39.09
-163.004
-108.339
-59.9217
-46.1018
-34.9175
0.996973
0.195358
-0.218636
-0.489697
-0.659938
-0.764796
-0.894296
-1.03104
-1.18217
-1.35483
-1.53813
-1.72826
-1.91746
-2.09975
-2.26929
-2.42049
-2.551
-2.64834
-2.71713
-2.74752
-2.73932
-2.69304
-2.62312
-2.5161
-2.38059
-2.20042
-1.97609
-1.69001
-1.33222
-0.879996
-0.296188
0.484473
1.58625
3.29608
6.45261
14.149
29.653
15.9237
9.40994
6.49259
4.7462
3.48489
2.50216
1.66106
0.908683
0.219772
-0.431987
-1.0539
-1.65906
-2.24204
-2.81864
-3.37318
-3.91956
-4.44648
-4.96083
-5.45084
-5.9239
-6.38106
-6.8076
-7.20873
-7.58643
-7.93755
-8.25692
-8.53975
-8.80091
-9.02553
-9.22394
-9.39251
-9.53481
-9.6478
-9.73362
-9.78679
-9.80062
-9.7655
-9.68716
-9.53613
-9.33142
-9.09108
-8.75807
-8.4202
-7.95696
-7.48969
-6.90526
-6.27354
-5.54728
-4.72112
-3.7791
-2.66193
-1.34996
0.34711
2.68302
6.21921
14.6344
38.678
20.9622
10.6945
5.74912
3.14653
1.51841
10.7922
8.57968
8.11438
7.14138
6.61796
6.15096
5.67438
5.31824
4.96447
4.64967
4.35881
4.09336
3.84788
3.62275
3.41986
3.23573
3.07492
2.92777
2.80531
2.69937
2.61064
2.52919
2.45083
2.35798
2.26123
2.14032
1.98671
1.77885
1.48969
1.06806
0.423677
-0.624351
-2.48828
-6.33465
-16.561
-34.4247
-23.4027
-17.138
-14.4493
-13.0821
-12.3473
-11.9421
-11.7357
-11.662
-11.6808
-11.756
-11.8696
-12.0129
-12.1841
-12.3605
-12.5528
-12.7439
-12.9397
-13.1282
-13.307
-13.4821
-13.6445
-13.7941
-13.9249
-14.0363
-14.1324
-14.2068
-14.271
-14.2961
-14.3138
-14.3105
-14.29
-14.24
-14.1751
-14.1041
-14.0079
-13.8947
-13.7373
-13.5407
-13.326
-13.0542
-12.7442
-12.4196
-12.0124
-11.6163
-11.101
-10.5903
-9.934
-9.24212
-8.41419
-7.41423
-6.19851
-4.6212
-2.52787
0.667905
6.22877
18.3152
62.5176
49.4579
27.3101
20.9362
16.3977
13.2607
10.8602
12.1676
10.0779
9.82455
8.90218
8.44493
8.00415
7.56177
7.25393
6.94568
6.68556
6.45519
6.25483
6.07075
5.91053
5.77167
5.64286
5.53662
5.43395
5.34632
5.264
5.18458
5.09627
4.99915
4.86542
4.70844
4.49121
4.20002
3.78999
3.20598
2.3278
0.937023
-1.47182
-6.24523
-17.9644
-38.7535
-30.6248
-23.0531
-19.5506
-17.6686
-16.5297
-15.8532
-15.411
-15.124
-14.9459
-14.8431
-14.7972
-14.7954
-14.7899
-14.8189
-14.8583
-14.9027
-14.9451
-14.9833
-15.0239
-15.0525
-15.0668
-15.0825
-15.0724
-15.058
-15.0297
-14.9894
-14.9329
-14.8651
-14.782
-14.6838
-14.5766
-14.4657
-14.3387
-14.196
-14.0475
-13.8984
-13.7357
-13.5275
-13.2965
-13.0746
-12.816
-12.5284
-12.2425
-11.8898
-11.5637
-11.1418
-10.7322
-10.1854
-9.62052
-8.91371
-8.04254
-6.94499
-5.39119
-3.1294
0.841187
9.49345
35.3576
43.6599
28.394
21.0027
18.245
15.7693
13.5966
11.9384
11.1292
9.44791
9.39812
8.68
8.37282
8.05441
7.73457
7.52995
7.32135
7.15996
7.02007
6.90327
6.80468
6.72664
6.65877
6.59989
6.55952
6.51404
6.48182
6.44559
6.40368
6.34869
6.27899
6.16041
6.01281
5.79115
5.47693
5.01446
4.32048
3.22102
1.34942
-2.23151
-10.4113
-27.1033
-27.8024
-22.15
-19.0882
-17.3697
-16.3653
-15.7278
-15.3031
-15.0199
-14.8083
-14.6673
-14.576
-14.4943
-14.4495
-14.417
-14.3911
-14.3594
-14.3222
-14.2889
-14.2497
-14.2084
-14.1565
-14.0929
-14.0296
-13.9405
-13.8455
-13.7476
-13.6393
-13.5229
-13.3965
-13.2584
-13.1186
-12.9669
-12.8264
-12.6766
-12.5105
-12.3538
-12.1954
-12.0198
-11.8282
-11.6308
-11.4336
-11.2187
-11.0022
-10.7876
-10.5279
-10.2936
-9.98543
-9.71409
-9.33124
-8.92827
-8.4239
-7.76595
-6.90222
-5.59387
-3.47944
0.931159
13.3419
31.182
22.5275
18.1921
15.4452
14.3387
13.1072
11.7148
10.7364
9.58128
8.29734
8.38457
7.87239
7.70555
7.5001
7.29881
7.19447
7.08134
7.00376
6.94243
6.90192
6.87695
6.86162
6.85559
6.85515
6.86854
6.87279
6.88736
6.89357
6.89168
6.87348
6.83673
6.75537
6.64519
6.46033
6.18298
5.73975
5.04076
3.8674
1.69683
-2.94429
-13.3956
-20.9432
-18.7527
-16.6374
-15.366
-14.5982
-14.0862
-13.7405
-13.5004
-13.3354
-13.2193
-13.1108
-13.0228
-12.9559
-12.894
-12.827
-12.7679
-12.7038
-12.6295
-12.5526
-12.4704
-12.3795
-12.2776
-12.1694
-12.063
-11.9447
-11.8144
-11.6756
-11.537
-11.396
-11.2548
-11.1013
-10.9537
-10.8
-10.6497
-10.5001
-10.354
-10.2076
-10.0602
-9.9003
-9.74422
-9.58603
-9.44104
-9.29028
-9.12899
-8.98526
-8.81976
-8.66912
-8.47692
-8.3189
-8.07489
-7.83481
-7.52476
-7.09919
-6.49425
-5.50009
-3.68355
0.990546
14.0395
16.2713
13.7931
12.5007
11.4342
11.0671
10.521
9.64875
9.1226
8.09072
7.13491
7.30524
6.96047
6.88853
6.7776
6.67601
6.64633
6.6028
6.58894
6.58823
6.60465
6.62752
6.65763
6.69471
6.73325
6.78232
6.82166
6.86916
6.90366
6.93091
6.94096
6.94021
6.89802
6.8273
6.68442
6.46036
6.08288
5.44891
4.29664
1.95821
-3.36782
-11.8022
-14.1544
-13.461
-12.7617
-12.2665
-11.9497
-11.7255
-11.5453
-11.427
-11.3234
-11.231
-11.1579
-11.0851
-11.0019
-10.9346
-10.8572
-10.7713
-10.6873
-10.5925
-10.487
-10.3796
-10.2723
-10.1508
-10.0197
-9.89296
-9.75815
-9.62036
-9.48069
-9.33388
-9.18667
-9.04833
-8.90404
-8.75958
-8.62029
-8.48947
-8.35885
-8.22735
-8.10379
-7.97745
-7.85334
-7.73337
-7.61679
-7.51493
-7.4157
-7.31479
-7.22512
-7.13706
-7.06044
-6.95304
-6.88062
-6.75338
-6.63944
-6.48646
-6.25081
-5.90505
-5.22955
-3.76073
0.908972
9.06294
9.62718
9.24696
8.96222
8.62088
8.59585
8.41827
7.86692
7.62323
6.80532
6.0999
6.30943
6.08809
6.08762
6.04667
6.01274
6.03132
6.03819
6.06885
6.10759
6.1562
6.2065
6.2656
6.32516
6.3878
6.4552
6.51411
6.57889
6.62773
6.66862
6.69811
6.72408
6.70596
6.6668
6.57248
6.40983
6.09095
5.53681
4.45846
2.05336
-3.17329
-8.52763
-9.9385
-10.0042
-9.88147
-9.74073
-9.63003
-9.53858
-9.45178
-9.38628
-9.32492
-9.25645
-9.18068
-9.11222
-9.035
-8.94994
-8.86359
-8.77013
-8.67146
-8.57031
-8.45578
-8.33551
-8.2179
-8.09784
-7.96673
-7.83483
-7.70124
-7.56561
-7.43104
-7.30036
-7.16744
-7.03632
-6.91054
-6.78879
-6.66583
-6.55257
-6.45125
-6.34656
-6.24205
-6.14552
-6.05435
-5.96692
-5.89371
-5.82549
-5.76058
-5.70748
-5.66268
-5.62205
-5.60322
-5.55588
-5.54356
-5.50878
-5.48398
-5.43851
-5.35343
-5.19159
-4.79134
-3.63762
0.654194
5.45338
6.31201
6.55142
6.63126
6.62038
6.75381
6.76811
6.42226
6.35098
5.7209
5.20278
5.43554
5.30201
5.34598
5.3488
5.36045
5.40882
5.44657
5.50104
5.55893
5.62295
5.69055
5.7596
5.82998
5.89885
5.96865
6.03367
6.09604
6.14761
6.19596
6.2357
6.26531
6.2614
6.24867
6.18139
6.05459
5.80115
5.32601
4.31116
1.93009
-2.53556
-6.02639
-7.19767
-7.54264
-7.64675
-7.65936
-7.64674
-7.61427
-7.57136
-7.53146
-7.47901
-7.41566
-7.3522
-7.28272
-7.19719
-7.11497
-7.02767
-6.92811
-6.82449
-6.72285
-6.6147
-6.49692
-6.37912
-6.26479
-6.14303
-6.02324
-5.90106
-5.78208
-5.66308
-5.54548
-5.42866
-5.32113
-5.2153
-5.11475
-5.01995
-4.92644
-4.84118
-4.76579
-4.68841
-4.612
-4.55182
-4.49458
-4.44641
-4.40948
-4.37633
-4.35138
-4.34369
-4.32873
-4.33766
-4.34525
-4.37188
-4.38213
-4.41606
-4.44878
-4.45991
-4.42585
-4.20786
-3.24931
0.383162
3.49768
4.37939
4.80856
5.03604
5.16526
5.36739
5.4775
5.267
5.30269
4.81077
4.43899
4.67061
4.59505
4.66411
4.69736
4.7325
4.79647
4.84934
4.91404
4.98027
5.04806
5.11741
5.18455
5.25159
5.31203
5.37716
5.43361
5.48859
5.53522
5.5754
5.61058
5.6349
5.63763
5.62896
5.57417
5.47344
5.26669
4.8368
3.86341
1.62798
-1.87184
-4.29973
-5.3005
-5.69787
-5.87057
-5.93647
-5.96313
-5.96311
-5.9375
-5.90208
-5.85745
-5.79836
-5.73069
-5.66464
-5.58796
-5.49879
-5.41217
-5.32296
-5.22627
-5.12377
-5.02329
-4.92175
-4.81386
-4.7109
-4.60461
-4.49728
-4.39456
-4.29389
-4.19446
-4.09869
-4.00565
-3.91441
-3.83232
-3.75142
-3.67743
-3.61032
-3.54712
-3.48625
-3.43125
-3.38228
-3.33998
-3.306
-3.27879
-3.26009
-3.24855
-3.2446
-3.25171
-3.26725
-3.28732
-3.31581
-3.36629
-3.41314
-3.47553
-3.53848
-3.60402
-3.64447
-3.53424
-2.66612
0.195853
2.36008
3.15974
3.61775
3.88565
4.06829
4.2949
4.45254
4.33614
4.43487
4.03589
3.7751
3.99145
3.95627
4.04102
4.08648
4.13429
4.20291
4.26025
4.32513
4.38605
4.44866
4.50855
4.56701
4.61972
4.67033
4.72322
4.76551
4.80408
4.83795
4.86492
4.88776
4.90102
4.89368
4.88158
4.83434
4.73886
4.53897
4.13937
3.22656
1.26694
-1.34233
-3.08221
-3.90375
-4.27757
-4.44965
-4.5332
-4.56554
-4.56689
-4.54553
-4.51231
-4.46985
-4.41934
-4.35579
-4.2871
-4.21805
-4.1402
-4.05679
-3.97383
-3.88757
-3.7999
-3.70909
-3.62013
-3.53135
-3.44237
-3.35396
-3.26659
-3.18129
-3.09915
-3.01994
-2.94252
-2.87052
-2.80174
-2.73659
-2.67825
-2.62069
-2.57052
-2.52525
-2.48423
-2.44525
-2.41284
-2.38829
-2.36954
-2.35655
-2.35187
-2.35215
-2.36246
-2.37594
-2.40241
-2.43902
-2.47297
-2.53092
-2.58746
-2.66409
-2.74648
-2.82777
-2.89887
-2.81808
-2.04784
0.0825111
1.6485
2.32579
2.75245
3.01957
3.2263
3.4495
3.63012
3.57635
3.70694
3.36884
3.19199
3.38826
3.38085
3.46841
3.51585
3.56726
3.63113
3.68501
3.74124
3.79186
3.84548
3.89176
3.93311
3.97208
4.00837
4.04133
4.06541
4.087
4.10293
4.11401
4.11992
4.11741
4.10132
4.07389
4.01969
3.92382
3.73461
3.35894
2.52313
0.933782
-0.948711
-2.20438
-2.84046
-3.15844
-3.31452
-3.38836
-3.4175
-3.41701
-3.39943
-3.36499
-3.31968
-3.2723
-3.2177
-3.15394
-3.09055
-3.02393
-2.95236
-2.88058
-2.80818
-2.7331
-2.65683
-2.58212
-2.51007
-2.43889
-2.36745
-2.29831
-2.23187
-2.16831
-2.10636
-2.04836
-1.99288
-1.94233
-1.89297
-1.84947
-1.81019
-1.7737
-1.74066
-1.71167
-1.68821
-1.66913
-1.6551
-1.6458
-1.64202
-1.64573
-1.65374
-1.66822
-1.68931
-1.71566
-1.75571
-1.79766
-1.85004
-1.9107
-1.988
-2.06853
-2.1506
-2.22234
-2.15523
-1.51281
0.0200747
1.16835
1.73148
2.10333
2.35391
2.55915
2.77159
2.95598
2.94274
3.08436
2.79205
2.67652
2.85085
2.8584
2.94051
2.9842
3.03345
3.0909
3.13364
3.17721
3.21782
3.25562
3.28421
3.31091
3.33401
3.35184
3.36582
3.37108
3.37684
3.3768
3.37062
3.35863
3.34195
3.31212
3.27619
3.2147
3.11223
2.92926
2.57577
1.87072
0.663032
-0.659976
-1.55699
-2.03963
-2.28351
-2.40715
-2.46623
-2.49103
-2.48695
-2.46461
-2.43671
-2.39768
-2.35064
-2.30356
-2.25004
-2.19326
-2.13651
-2.07824
-2.01777
-1.95733
-1.90028
-1.83988
-1.77988
-1.72214
-1.66631
-1.61143
-1.55837
-1.50792
-1.45997
-1.4144
-1.3714
-1.33049
-1.29361
-1.25981
-1.22748
-1.19958
-1.17485
-1.15295
-1.13309
-1.11795
-1.10759
-1.10075
-1.0983
-1.10003
-1.10705
-1.11819
-1.13495
-1.15734
-1.1843
-1.21986
-1.26095
-1.3101
-1.36502
-1.43411
-1.50549
-1.58119
-1.64139
-1.5806
-1.08933
-0.0175214
0.828436
1.28291
1.60242
1.83008
2.02146
2.2142
2.39189
2.40537
2.54836
2.28923
2.21738
2.36515
2.38342
2.45467
2.49419
2.53766
2.58143
2.61345
2.64446
2.67257
2.69218
2.70669
2.71919
2.72556
2.72821
2.72468
2.71627
2.70784
2.69145
2.66994
2.64662
2.61818
2.58149
2.53452
2.46312
2.3606
2.19383
1.889
1.32376
0.455517
-0.448718
-1.07561
-1.42529
-1.6111
-1.70204
-1.74451
-1.7571
-1.75034
-1.73095
-1.70276
-1.67008
-1.63092
-1.5892
-1.54559
-1.50025
-1.45377
-1.40615
-1.35966
-1.31077
-1.26532
-1.22005
-1.17452
-1.1313
-1.08907
-1.04781
-1.00837
-0.971701
-0.936351
-0.9032
-0.87249
-0.843186
-0.8162
-0.792636
-0.770877
-0.75162
-0.734694
-0.720322
-0.708577
-0.699329
-0.693069
-0.691094
-0.692163
-0.696119
-0.704379
-0.716657
-0.7319
-0.752454
-0.778098
-0.808158
-0.844502
-0.887836
-0.934626
-0.992051
-1.05456
-1.1179
-1.16335
-1.11563
-0.766336
-0.0345093
0.579922
0.942397
1.20927
1.406
1.57869
1.75097
1.91754
1.94439
2.08152
1.84765
1.80548
1.93162
1.95202
2.01213
2.04563
2.07966
2.11021
2.13241
2.15203
2.16586
2.17109
2.17427
2.17386
2.16651
2.15415
2.1388
2.12029
2.09818
2.07145
2.04342
2.01169
1.97686
1.93333
1.87904
1.81048
1.71659
1.56679
1.31679
0.898982
0.303089
-0.295937
-0.719727
-0.964494
-1.09575
-1.16212
-1.18728
-1.19286
-1.18451
-1.16681
-1.14211
-1.11383
-1.08184
-1.04925
-1.01364
-0.977709
-0.942242
-0.906122
-0.870274
-0.834061
-0.7981
-0.765287
-0.731431
-0.698926
-0.66886
-0.63926
-0.611061
-0.584101
-0.559168
-0.535521
-0.513875
-0.494296
-0.475317
-0.458812
-0.443946
-0.430695
-0.419846
-0.410123
-0.403368
-0.398437
-0.395348
-0.395163
-0.397258
-0.402389
-0.410099
-0.42078
-0.434815
-0.451929
-0.473358
-0.49853
-0.528431
-0.563912
-0.603056
-0.649971
-0.699777
-0.749506
-0.786573
-0.754833
-0.521257
-0.0397002
0.395793
0.677677
0.89431
1.06121
1.21226
1.36272
1.51066
1.54839
1.67558
1.46117
1.44025
1.5444
1.56435
1.61358
1.63911
1.66516
1.68454
1.69683
1.7061
1.70633
1.70338
1.69692
1.68488
1.66716
1.64659
1.62422
1.598
1.56932
1.5387
1.50473
1.4694
1.43121
1.38578
1.33371
1.27243
1.18886
1.06696
0.87652
0.583552
0.194255
-0.187653
-0.462214
-0.625732
-0.71168
-0.75468
-0.771916
-0.771439
-0.761337
-0.746021
-0.72561
-0.702813
-0.677776
-0.65135
-0.625061
-0.597555
-0.570565
-0.543707
-0.517533
-0.491568
-0.465347
-0.440838
-0.417563
-0.394197
-0.372418
-0.351898
-0.332115
-0.313387
-0.296
-0.27963
-0.264582
-0.251045
-0.238592
-0.227142
-0.217399
-0.208413
-0.201097
-0.195078
-0.190604
-0.187994
-0.186793
-0.187346
-0.189784
-0.194203
-0.200702
-0.209408
-0.220748
-0.234339
-0.251241
-0.271059
-0.294285
-0.322255
-0.353224
-0.389342
-0.429069
-0.468587
-0.498154
-0.482105
-0.339154
-0.0379951
0.260127
0.470456
0.641431
0.778967
0.906891
1.03473
1.16418
1.2087
1.32053
1.12615
1.12058
1.20489
1.22277
1.26021
1.27938
1.29592
1.30582
1.31062
1.30979
1.30417
1.2953
1.2804
1.26136
1.23886
1.21417
1.18717
1.15803
1.12749
1.09434
1.05975
1.02525
0.987621
0.946256
0.901566
0.848318
0.779929
0.686318
0.552406
0.360188
0.118974
-0.112308
-0.280668
-0.38184
-0.43601
-0.460449
-0.468342
-0.465851
-0.455984
-0.442239
-0.426776
-0.408839
-0.389979
-0.370617
-0.350817
-0.330626
-0.311176
-0.291685
-0.272771
-0.254421
-0.236609
-0.219199
-0.202751
-0.187024
-0.171819
-0.157533
-0.14419
-0.131411
-0.119598
-0.108555
-0.0983861
-0.0889842
-0.0804825
-0.072883
-0.0661281
-0.0602321
-0.0552536
-0.0514463
-0.0486082
-0.0469029
-0.0463639
-0.0470136
-0.0489532
-0.0522892
-0.0571205
-0.0635316
-0.0718188
-0.0819918
-0.0943051
-0.109095
-0.126515
-0.147161
-0.170731
-0.197776
-0.228052
-0.259049
-0.284114
-0.281785
-0.205402
-0.0312334
0.16052
0.310484
0.439671
0.549188
0.655185
0.761439
0.871515
0.915806
1.01195
0.837599
0.843626
0.908567
0.924162
0.952957
0.964946
0.973544
0.97816
0.976191
0.97047
0.960797
0.945981
0.927668
0.906245
0.882075
0.856346
0.828261
0.799595
0.769465
0.738419
0.70817
0.675912
0.643815
0.608749
0.571536
0.528941
0.478476
0.412773
0.325251
0.207324
0.0685737
-0.06152
-0.156583
-0.21349
-0.243254
-0.255773
-0.2571
-0.252642
-0.244458
-0.233114
-0.220612
-0.207554
-0.193632
-0.1796
-0.165688
-0.151705
-0.137786
-0.124368
-0.111253
-0.0986561
-0.0865526
-0.0747956
-0.0635556
-0.0529212
-0.0427444
-0.0331537
-0.0240812
-0.0155745
-0.00757669
-0.000164655
0.00670743
0.0130531
0.0187825
0.0240069
0.028684
0.0327354
0.0361547
0.0388372
0.0408817
0.0420914
0.0426054
0.0423513
0.0412459
0.0391601
0.0360918
0.0319231
0.0264883
0.0197111
0.0113382
0.0011802
-0.0109646
-0.0253934
-0.042305
-0.0620048
-0.0841193
-0.1082
-0.130007
-0.138405
-0.108418
-0.0213045
0.0895308
0.188544
0.281013
0.365226
0.449182
0.534868
0.625206
0.667621
0.749133
0.593969
0.605896
0.65492
0.668814
0.688776
0.696041
0.7005
0.700309
0.694999
0.685992
0.672405
0.656455
0.637759
0.616095
0.593719
0.569397
0.543784
0.517999
0.491541
0.465663
0.439577
0.41374
0.387571
0.360268
0.332357
0.302022
0.267136
0.225141
0.172941
0.107982
0.036231
-0.0288512
-0.0756348
-0.102922
-0.115642
-0.119423
-0.117482
-0.111855
-0.104554
-0.0960266
-0.0866915
-0.0769519
-0.0672421
-0.0573701
-0.0476206
-0.0381534
-0.028875
-0.0198141
-0.0110823
-0.00264466
0.0054544
0.013217
0.0206243
0.0276902
0.0344017
0.0408043
0.0467432
0.0525053
0.05787
0.0628175
0.0674238
0.0717655
0.0757523
0.079401
0.082759
0.0857295
0.088045
0.0900983
0.0917725
0.0930124
0.0937226
0.0939757
0.0936781
0.0929558
0.0914942
0.0891887
0.0863016
0.0823235
0.0774647
0.071343
0.0636521
0.0543736
0.043081
0.0297913
0.0139065
-0.00424112
-0.0235477
-0.0392471
-0.0395459
-0.0107969
0.0407013
0.0979925
0.158782
0.219457
0.283116
0.349679
0.421593
0.461437
0.526481
0.392397
0.407049
0.443018
0.453862
0.467489
0.47177
0.472886
0.469271
0.462267
0.452225
0.439555
0.424169
0.406705
0.388287
0.368241
0.347607
0.32669
0.305672
0.284749
0.264558
0.244559
0.225149
0.206039
0.186968
0.168023
0.148352
0.126943
0.103598
0.0768527
0.0469042
0.0165384
-0.00905809
-0.0260069
-0.0344615
-0.0366817
-0.0349034
-0.0308199
-0.0253955
-0.0191464
-0.0125392
-0.00574623
0.00107332
0.00784837
0.0145382
0.0210483
0.0273588
0.0334761
0.0395058
0.0451632
0.0507382
0.0559842
0.0610433
0.0658942
0.0705626
0.0749342
0.0791584
0.0831224
0.0868221
0.0905453
0.0940073
0.0971952
0.100179
0.103035
0.105611
0.108134
0.110542
0.112312
0.113874
0.115445
0.116723
0.117937
0.118514
0.119037
0.119264
0.119035
0.118588
0.117532
0.116059
0.113755
0.110925
0.106987
0.101893
0.0950774
0.0868007
0.0762482
0.0626925
0.0459883
0.0262438
0.00744489
-0.000628974
0.00930009
0.0335358
0.0676917
0.10766
0.152649
0.202182
0.256564
0.291896
0.342216
0.22824
0.244463
0.269376
0.277918
0.286599
0.28827
0.286906
0.282615
0.275826
0.266625
0.255648
0.242689
0.228884
0.214121
0.198449
0.182826
0.167551
0.152263
0.137582
0.123408
0.109948
0.0970664
0.0848195
0.073238
0.0621285
0.0512646
0.0407844
0.0306027
0.0208216
0.012063
0.00538323
0.00185058
0.00160043
0.00385601
0.00765133
0.0122727
0.0172045
0.0223193
0.0274015
0.0324108
0.0373095
0.0421351
0.0466312
0.051114
0.0554501
0.0596265
0.0635813
0.0675098
0.0711498
0.0746704
0.0781956
0.0816392
0.0848177
0.0879518
0.0908131
0.0936004
0.0964601
0.0989718
0.101406
0.103845
0.106205
0.108406
0.110564
0.112384
0.114231
0.115899
0.11771
0.119213
0.120573
0.121902
0.123209
0.124283
0.125193
0.126187
0.126972
0.127788
0.128253
0.128372
0.128371
0.127604
0.126583
0.124795
0.121983
0.117473
0.111026
0.10148
0.0873001
0.0660914
0.0376454
0.00830297
-0.00917006
-0.0097059
0.00289072
0.0248691
0.0537154
0.0877476
0.126242
0.156196
0.193364
0.0986313
0.114582
0.130726
0.137166
0.141958
0.142103
0.140119
0.13614
0.13034
0.123043
0.114616
0.105665
0.0958963
0.0857781
0.0758178
0.0658657
0.0563014
0.0470879
0.0385257
0.0304772
0.0230654
0.0163259
0.0102233
0.00475452
-9.4535e-06
-0.00396076
-0.00690215
-0.00847097
-0.00816471
-0.00544626
-0.00019923
0.00686953
0.0145259
0.0217988
0.0281777
0.033877
0.0388578
0.0433188
0.047421
0.0512067
0.0547357
0.0582031
0.0612189
0.0641975
0.067186
0.0698843
0.0725802
0.0751797
0.0777929
0.0800589
0.0823212
0.0846067
0.0868771
0.0889485
0.0911876
0.0930173
0.0951395
0.0970399
0.0986852
0.100614
0.102075
0.103842
0.105514
0.106876
0.108322
0.109824
0.111143
0.112595
0.113682
0.115102
0.116176
0.117818
0.119076
0.120407
0.122066
0.123262
0.124817
0.125995
0.127569
0.128684
0.129594
0.130091
0.129955
0.128593
0.125317
0.118969
0.107561
0.0871125
0.0551964
0.0154494
-0.0182404
-0.0361696
-0.0402128
-0.0329703
-0.0182446
0.00229314
0.0270821
0.0511133
0.0761098
-0.000163629
0.0139041
0.0229474
0.0275271
0.0295332
0.0291124
0.0271708
0.0239264
0.0198339
0.0153322
0.0104838
0.00546746
0.000503053
-0.00434022
-0.00888584
-0.0131245
-0.0169333
-0.0202883
-0.023233
-0.0257093
-0.0277688
-0.0293775
-0.0305395
-0.0311094
-0.0311449
-0.0303797
-0.0285131
-0.0252028
-0.0198495
-0.0121372
-0.00240026
0.0082129
0.0182098
0.0267548
0.0336562
0.039144
0.0437256
0.0474471
0.0507711
0.053529
0.0561616
0.0586098
0.0609789
0.0629177
0.0650877
0.0671472
0.0690382
0.0707128
0.0726082
0.07451
0.0761328
0.0777753
0.079431
0.0809135
0.0824137
0.0840695
0.0855198
0.086964
0.0883177
0.0896454
0.0909266
0.092098
0.0932356
0.0944996
0.0956414
0.0969463
0.0979409
0.099061
0.100143
0.101387
0.102546
0.103937
0.105507
0.107035
0.108609
0.110535
0.112383
0.114599
0.116687
0.1191
0.12136
0.123392
0.125149
0.125683
0.124958
0.121636
0.112595
0.0944777
0.0632184
0.0204896
-0.0209417
-0.0497825
-0.0657944
-0.070419
-0.0672266
-0.0580969
-0.0452014
-0.0272427
-0.0126578
-0.0723942
-0.0609814
-0.0575256
-0.0546919
-0.0546649
-0.0554802
-0.0571898
-0.0591039
-0.0609961
-0.0626268
-0.0638395
-0.064618
-0.064895
-0.0647079
-0.0640107
-0.062902
-0.0613715
-0.05962
-0.0575137
-0.0553218
-0.0530509
-0.0505661
-0.0478746
-0.0450202
-0.0419136
-0.0382198
-0.0338554
-0.028394
-0.0213487
-0.0126851
-0.00272751
0.00747834
0.0167841
0.0244161
0.0305145
0.0351759
0.0389352
0.0420522
0.0446014
0.0467902
0.0488477
0.0506478
0.0525985
0.0541453
0.0557107
0.0573672
0.0589672
0.0603011
0.0617999
0.0632494
0.0645837
0.0660845
0.0673072
0.0686931
0.0699021
0.0711155
0.0721438
0.0733013
0.0744328
0.0753231
0.0765319
0.0775074
0.078224
0.0792711
0.0800761
0.0807977
0.0816567
0.0824852
0.083485
0.0844852
0.085508
0.086722
0.0879807
0.0895532
0.0911074
0.0929051
0.0950901
0.0977299
0.100082
0.102873
0.105781
0.108668
0.111602
0.114224
0.114798
0.113617
0.107372
0.0921138
0.0640057
0.0234811
-0.0196189
-0.0540966
-0.0778332
-0.0912201
-0.0971905
-0.0973509
-0.0945092
-0.0826404
-0.0770069
-0.122124
-0.114164
-0.11482
-0.113649
-0.115351
-0.116336
-0.11751
-0.118166
-0.117846
-0.116651
-0.114387
-0.111331
-0.107221
-0.102284
-0.0969412
-0.0910089
-0.0849532
-0.0788765
-0.0729022
-0.0668945
-0.0610901
-0.0557477
-0.0504123
-0.045414
-0.040461
-0.0354721
-0.0301997
-0.0243333
-0.0177421
-0.0102527
-0.00219554
0.00574156
0.0128994
0.0188146
0.0234104
0.027081
0.02992
0.0322801
0.0343845
0.0362164
0.0379301
0.0395162
0.0410091
0.0425405
0.0438704
0.0452728
0.046603
0.0479762
0.0492671
0.0504667
0.0516755
0.0529182
0.0540262
0.0551291
0.0562275
0.057152
0.058188
0.0590428
0.0598494
0.0607612
0.0614692
0.0621206
0.0628722
0.0634141
0.064073
0.0644925
0.0650579
0.065596
0.0663252
0.0670687
0.0678191
0.0688228
0.0698953
0.0710341
0.0727072
0.0742287
0.0760698
0.0784855
0.0810133
0.0838173
0.0871141
0.0905271
0.0935862