/*--------------------------------*- C++ -*----------------------------------*\
| =========                 |                                                 |
| \\      /  F ield         | OpenFOAM: The Open Source CFD Toolbox           |
|  \\    /   O peration     | Version:  2006                                  |
|   \\  /    A nd           | Website:  www.openfoam.com                      |
|    \\/     M anipulation  |                                                 |
\*---------------------------------------------------------------------------*/
FoamFile
{
    version     2.0;
    format      ascii;
    class       volScalarField;
    location    "20000";
    object      I2_18;
}
// * * * * * * * * * * * * * * * * * * * * * * * * * * * * * * * * * * * * * //

dimensions      [0 0 0 0 0 0 0];


internalField   nonuniform List<scalar> 
14751
(
-4.81168e-47
-2.11982e-38
-2.44108e-37
-2.3527e-36
-5.8576e-37
-2.59302e-39
-5.56672e-35
-2.65346e-36
-8.57693e-37
-1.0876e-40
-1.50369e-37
-6.26483e-42
-4.66794e-38
-1.83943e-40
-2.11557e-38
-2.55552e-42
-1.91397e-39
-6.57164e-41
-6.98723e-40
-2.11923e-41
-2.12868e-41
-2.56146e-40
-1.94538e-40
-1.60676e-40
-2.15772e-41
-5.60742e-42
1.12524e-53
-2.38623e-41
-1.04864e-41
-4.00588e-43
-5.30803e-42
-2.60399e-42
-1.14286e-42
-1.40284e-41
-4.55836e-43
-8.49753e-42
-2.51308e-41
-2.04982e-46
-3.11869e-43
-1.34496e-43
-1.98039e-43
-1.79202e-38
3.48479e-51
-2.22237e-39
-3.83399e-43
-1.87434e-40
-1.22088e-38
-1.89952e-40
-1.49637e-46
-4.16746e-42
-2.30888e-37
-5.2529e-43
-8.13071e-43
-8.32613e-43
-1.66208e-41
-5.36348e-42
-1.22768e-42
-3.77187e-39
-3.3198e-39
-4.59601e-38
-1.09705e-41
-2.0154e-42
-1.08415e-37
-1.87104e-39
-1.59067e-39
1.25161e-50
-6.53538e-39
-2.59738e-42
-1.58399e-39
-7.9532e-41
-1.52835e-39
-1.24523e-41
-2.52232e-39
-3.15324e-39
-1.63952e-39
-2.49863e-41
-1.93218e-39
-1.74262e-39
-2.32677e-41
-6.86399e-39
-1.36404e-38
-6.34279e-39
-8.04773e-41
-4.05799e-41
-9.39645e-39
-1.70838e-38
-1.01623e-38
-3.6854e-43
0
-1.67035e-45
-5.30891e-38
-8.71589e-40
-3.46051e-40
-7.25281e-42
-4.24892e-41
-3.6974e-39
-1.32434e-38
-4.27234e-43
1.86354e-54
-5.77096e-42
-2.72264e-33
-8.24494e-36
-8.66357e-34
-1.8675e-36
-3.3186e-36
-3.92454e-33
-3.23478e-38
-1.13589e-33
-7.01022e-37
-4.83388e-34
-8.00307e-41
-2.597e-34
-7.08312e-37
-1.63856e-36
-2.93983e-39
-1.44326e-36
-3.40805e-37
-1.36669e-35
-2.59497e-37
-1.29946e-41
-1.23475e-35
-1.42652e-35
-1.61469e-35
-1.83666e-37
-2.57495e-41
-2.26797e-40
-9.9582e-36
-4.09109e-38
-4.32878e-38
-4.64543e-38
-1.33235e-42
-2.88521e-36
-3.80742e-36
-1.96625e-38
-5.38469e-36
-7.57985e-36
-6.304e-40
-4.61498e-38
-1.62471e-38
-4.73357e-41
-7.93496e-43
-3.60578e-42
-5.16827e-40
-1.18907e-38
-1.31914e-35
-4.72993e-36
-1.60231e-35
-1.46485e-40
-1.04398e-41
-1.21962e-36
-9.75231e-39
-9.63789e-38
-2.10909e-39
-1.73639e-37
-7.68003e-39
-3.52901e-44
-5.17547e-39
-3.97119e-39
-6.81685e-37
-2.88613e-40
-1.9325e-38
-7.40868e-35
-5.70953e-35
-5.30276e-35
-5.4743e-39
-1.48045e-36
-7.38922e-37
-4.3214e-39
-4.64354e-35
-1.16805e-38
-5.31625e-37
-1.74862e-34
-2.0144e-34
-3.04071e-36
-3.32996e-36
-2.14178e-34
-2.28556e-34
-3.51236e-36
-3.99141e-36
-2.28782e-34
-9.70553e-38
-3.27088e-36
-1.55243e-35
-3.46134e-36
-1.0164e-33
-7.92665e-37
-1.0674e-36
-5.24628e-43
-2.92153e-37
-5.77885e-38
-1.40721e-33
-6.46873e-38
-1.30221e-36
-5.38078e-37
-6.30378e-34
-2.29991e-38
-4.91193e-38
-8.74835e-48
-7.95923e-41
-1.71495e-31
-1.28329e-32
-1.67815e-36
-1.96265e-31
-8.85098e-32
-1.02274e-32
-3.39494e-36
-4.46869e-33
-1.15511e-32
-2.28068e-33
-6.85131e-36
-1.25363e-33
-2.08453e-39
-2.97661e-33
-1.14574e-35
-5.50391e-40
-3.29793e-37
-7.09814e-35
-9.3386e-36
-5.6245e-40
-4.86241e-35
-4.11968e-35
-7.27255e-34
-3.16949e-34
-4.7593e-36
-4.17086e-34
-8.46947e-35
-1.39932e-36
-1.5753e-36
-4.45081e-34
-5.7229e-34
-2.30365e-34
-6.82215e-35
-1.43802e-41
-5.18382e-35
-8.39137e-35
-4.95962e-34
-1.54756e-40
-3.75166e-38
-1.18136e-36
-6.57257e-36
-3.17765e-36
-1.07004e-33
-1.98411e-33
-2.83641e-34
-2.37156e-34
-2.95768e-33
-2.64708e-35
-1.81324e-37
-1.3375e-34
-3.56755e-38
-2.18354e-36
-3.94348e-34
-1.21444e-36
-1.17909e-33
-9.35061e-39
-3.19536e-36
-9.12101e-36
-5.93299e-36
-4.75549e-40
-2.60334e-33
-4.32475e-34
-5.11569e-34
-7.87863e-34
-1.11826e-33
-8.81278e-33
-3.22829e-35
-1.95623e-35
-1.18388e-32
-7.53131e-33
-7.61394e-33
-1.10792e-33
-3.11091e-33
-1.28486e-34
-1.25563e-34
-2.08513e-33
-1.87218e-32
-1.36479e-34
-1.33477e-34
-2.27222e-33
-3.91812e-32
-3.01867e-32
-1.36465e-34
-1.36501e-34
-9.99867e-33
-1.40569e-37
-1.42029e-34
-3.61603e-35
-9.26041e-36
-4.2142e-32
-1.11123e-32
-4.92032e-32
-5.39459e-32
-7.48598e-36
-4.19629e-33
-2.8148e-32
-4.37221e-37
-5.68934e-41
-1.21066e-39
-1.70926e-35
-4.50086e-30
-9.08598e-31
-4.12298e-31
-2.20592e-31
-5.37722e-31
-3.50154e-31
-2.37538e-31
-4.83401e-32
-3.63208e-32
-2.87614e-39
-4.32261e-37
-1.43631e-34
-1.60732e-32
-8.0184e-40
-3.09234e-38
-3.92924e-32
-3.15679e-32
-3.72008e-32
-1.15716e-34
-4.76691e-34
-3.02071e-32
-5.51047e-33
-1.41057e-33
-3.15873e-35
-1.81814e-32
-3.23864e-35
-3.82397e-35
-1.97248e-38
-2.78456e-32
-3.55254e-32
-3.35181e-33
-1.02693e-33
-2.59472e-35
-8.71289e-33
-1.14652e-32
-2.90855e-33
-8.27676e-35
-2.94533e-32
-1.88784e-34
-9.52103e-35
-3.50179e-32
-1.89279e-32
-7.66487e-36
-1.00083e-33
-1.52231e-32
-1.53133e-34
-9.8757e-40
-1.41455e-36
-2.58927e-34
-2.68586e-33
-3.19321e-37
-1.76754e-33
-2.38263e-35
-5.78226e-33
-1.08722e-34
-2.07483e-34
-1.7435e-32
-5.41392e-32
-7.59637e-35
-1.03352e-32
-8.24605e-34
-1.3138e-32
-5.42961e-32
-1.20678e-32
-4.76299e-32
-5.98748e-34
-1.59275e-31
-4.61089e-32
-4.37048e-32
-4.57116e-32
-1.09253e-36
-3.33665e-37
-2.5673e-38
-2.2463e-38
-1.48931e-35
-2.44671e-31
-2.63987e-33
-3.51136e-39
-7.61488e-31
-1.97009e-31
-1.58794e-30
-7.36234e-34
-7.44163e-34
-7.82699e-34
-6.85596e-31
-7.01618e-34
-1.26e-41
-8.44248e-31
-2.32456e-31
-2.66999e-36
-2.88066e-31
-3.19032e-31
-1.63594e-30
-5.17248e-31
-2.08762e-31
-2.29468e-31
-1.77591e-35
-1.94058e-42
-2.01233e-35
-2.19173e-30
-8.07506e-31
-2.55688e-34
-1.17697e-30
-6.35115e-30
-4.72851e-31
-3.55756e-31
-2.69176e-31
-2.09788e-31
-4.79617e-38
-2.60609e-35
-4.99056e-31
-3.23021e-36
-3.34698e-34
-1.27529e-33
-8.38803e-32
-6.88242e-32
-4.49263e-35
-2.27587e-39
-1.74039e-38
-2.4368e-31
-2.14874e-34
-2.65677e-34
-2.5116e-34
-1.74573e-32
-7.22793e-34
-3.44016e-38
-1.08174e-31
-1.27003e-31
-1.42147e-38
-1.8226e-34
-1.04044e-38
-3.60458e-40
-2.44346e-32
-3.44056e-32
-4.93852e-32
-2.97766e-36
-4.5064e-31
-1.00821e-33
-4.28573e-31
-2.83844e-31
-1.30972e-35
-4.50939e-30
-8.47951e-31
-9.11677e-32
-4.66371e-32
-2.09607e-37
-1.93127e-35
-3.29709e-33
-3.54708e-33
-1.03792e-32
-2.15637e-37
-2.69168e-39
-2.92107e-32
-1.03196e-31
-1.08556e-31
-2.53007e-32
-8.67912e-32
-7.95845e-32
-6.07033e-36
-1.11188e-35
-3.80961e-31
-1.08164e-31
-9.73796e-37
-1.54538e-33
-3.64369e-31
-3.43619e-31
-3.03916e-36
-1.29164e-30
-6.45326e-33
-2.08625e-32
-5.17364e-33
2.26276e-43
3.9808e-41
-1.20072e-30
-7.85143e-36
-1.08996e-30
-6.79369e-33
-1.4783e-30
-1.459e-30
-1.51288e-30
-3.43432e-39
-2.28839e-39
-3.70209e-38
-1.62312e-30
-6.71256e-30
-7.81687e-37
-1.90278e-30
-3.72135e-35
-9.26161e-30
-2.71439e-36
-5.29916e-36
-1.82048e-29
-1.46834e-30
-1.08574e-29
-1.01489e-30
-4.70503e-34
-8.91095e-35
-1.84435e-30
-1.94085e-35
-1.73562e-34
-1.20212e-30
-7.38838e-30
-2.08923e-30
-1.64152e-30
-1.51122e-34
-3.63229e-35
-5.54618e-35
-1.09835e-34
-5.1579e-31
-4.08569e-31
-9.91925e-42
-4.65888e-34
-3.01072e-34
-3.06702e-31
-3.18117e-31
-5.83467e-31
-8.1872e-34
-2.53692e-34
-5.36707e-32
-2.31462e-34
-1.73285e-34
-2.80544e-37
-7.65529e-32
-6.53842e-32
-9.62865e-32
-9.86359e-32
-2.96697e-32
-3.66267e-32
-1.74391e-31
-2.35053e-34
-8.05509e-40
-1.28566e-36
-1.44105e-36
-6.24069e-36
-4.82762e-31
-2.47275e-31
-2.43473e-30
-2.59873e-34
-3.27586e-34
-2.41962e-33
-8.50598e-34
-1.05915e-31
-1.69878e-32
-4.78626e-32
-2.36139e-33
-7.60144e-36
-1.69989e-33
-2.01359e-35
-5.26719e-33
-1.74298e-35
5.50021e-41
-1.5071e-31
-6.53635e-32
-2.29365e-31
-1.9317e-34
-2.29759e-31
-5.294e-32
-2.14615e-31
-2.25217e-31
-2.32089e-31
-5.43915e-36
-9.36406e-34
-4.32075e-33
-1.96145e-30
-8.9294e-31
-3.99956e-33
-4.31704e-30
-1.02465e-30
-3.13099e-37
-2.88904e-38
-7.99504e-38
9.64194e-40
-1.05115e-29
-1.93697e-32
-9.54919e-31
-4.47788e-30
-7.88109e-32
-1.2717e-29
-2.07761e-32
-5.5911e-33
-7.42271e-33
-5.021e-33
-1.81285e-33
-2.81322e-29
-7.62845e-30
-5.25029e-34
-8.01711e-34
-1.19476e-29
-2.5891e-43
-1.1707e-33
-8.08359e-30
-4.7938e-29
-3.06464e-29
-2.5422e-29
9.06939e-40
-4.54128e-31
-6.58099e-31
-1.55158e-30
-3.56696e-30
-1.83143e-35
-6.34982e-30
-8.89229e-35
-3.2812e-30
-2.55507e-30
-5.7456e-34
-9.91517e-35
-1.30163e-30
-2.71493e-31
-1.32217e-36
-1.08282e-36
-1.95538e-31
-5.92584e-34
-6.47029e-31
-1.36995e-31
-1.44362e-31
-1.99581e-33
-1.70984e-36
-4.54764e-34
-4.08081e-34
-1.59934e-31
-6.13751e-34
-4.94115e-32
-5.01024e-32
-4.44689e-32
-2.73516e-31
-2.93594e-34
-9.41843e-32
-1.16727e-31
-1.5207e-34
-2.47199e-34
-8.37537e-32
-6.36314e-31
-2.99698e-31
-7.07724e-31
-1.89051e-35
-2.79035e-29
-1.12696e-30
-1.06512e-33
-1.48628e-33
-1.31302e-37
-4.94671e-37
-6.23946e-35
-3.12629e-33
-6.04152e-34
-1.18328e-39
-1.96297e-33
-6.62727e-40
-1.5259e-35
-2.51441e-35
-9.99926e-37
-2.50127e-32
-2.38744e-36
-2.11522e-31
-4.6542e-36
-8.25945e-32
-7.96346e-32
-5.86193e-34
-8.45711e-32
-8.0315e-36
2.70582e-43
-5.67715e-34
-4.31515e-31
-3.72905e-31
-4.03121e-31
-1.83253e-33
-4.47362e-31
-5.17918e-31
-2.80739e-33
-8.54653e-33
-2.13235e-33
-3.78e-35
-2.51826e-30
-1.27896e-32
-1.12401e-32
-2.52193e-30
-1.42708e-32
-3.71236e-30
-1.31004e-32
-3.5679e-33
-1.56927e-29
-1.81149e-29
-4.59325e-33
-5.28747e-30
-5.41132e-29
-2.85438e-29
-3.42158e-29
-6.21736e-34
-2.4706e-39
-7.6309e-40
-4.5326e-29
-6.21023e-35
-8.60544e-28
-5.09437e-29
4.28855e-40
-2.75416e-35
-3.22753e-30
-4.93269e-31
-5.39327e-30
-3.73567e-30
-6.53145e-31
-1.88116e-34
-3.42525e-31
-1.09186e-30
-9.01083e-31
-8.44185e-34
-1.09011e-33
-5.30457e-31
-4.27063e-31
-7.07204e-35
-7.6173e-32
-1.62759e-37
-6.7316e-31
-1.93981e-34
-7.7104e-36
-9.40854e-38
-5.69206e-41
-1.48437e-38
-6.47035e-32
-6.83318e-32
-8.4138e-32
-9.50837e-32
-9.65592e-32
-5.77238e-37
-1.39301e-31
-1.66419e-31
-6.63755e-32
-3.27837e-34
-1.35551e-31
-2.5134e-36
-2.61511e-34
-7.45295e-31
-4.94447e-31
-1.13892e-29
-2.35998e-34
-1.61989e-34
-1.76968e-35
-1.93926e-31
-8.44709e-35
-2.50183e-36
-1.81268e-32
-1.05579e-35
-3.97897e-33
-8.62291e-34
-4.25976e-36
-7.37343e-34
-7.75255e-36
-9.17209e-33
-8.44362e-36
-8.6017e-33
-5.14431e-36
-3.59376e-35
-3.82215e-32
-3.92451e-32
-9.65594e-35
-3.65525e-32
-4.12615e-32
-1.86015e-34
-2.64691e-38
-2.47655e-35
-1.77876e-31
-1.32532e-31
-6.61482e-31
-7.16388e-31
-5.16618e-34
-7.03956e-31
-7.82466e-31
-1.01149e-30
-3.64126e-33
-4.05296e-33
-1.22398e-30
-3.6649e-33
-4.49966e-30
-1.10195e-37
-5.57205e-30
-5.96349e-30
-6.46752e-30
-6.90052e-33
-6.43076e-33
-2.18803e-34
-1.30192e-33
-1.0835e-32
-1.39052e-32
-4.4232e-33
-1.95924e-29
-8.25596e-37
-3.56194e-29
-8.77215e-34
-1.55675e-33
-3.03248e-33
-6.11176e-32
-1.79174e-28
-5.58786e-34
5.28635e-44
-3.48148e-32
-2.67841e-34
-8.90536e-31
-5.39242e-31
-1.50996e-30
-1.18794e-30
-8.79159e-31
-6.89767e-35
-1.17056e-34
-4.02227e-31
-3.60315e-31
-2.96443e-31
-2.3254e-31
-1.21594e-33
-7.76761e-34
-1.83656e-31
-2.92666e-34
-1.43568e-31
-6.53829e-35
-1.47893e-34
2.46621e-43
-5.45295e-39
-4.46193e-36
-3.42344e-32
-1.52588e-34
-4.58593e-32
-5.05203e-32
-6.74554e-32
-6.42815e-32
-1.37215e-37
-1.14325e-31
-1.69982e-31
-2.68451e-31
-1.01139e-31
-7.50464e-31
-4.22572e-31
-1.05559e-33
-6.97411e-33
-4.26185e-34
-8.42719e-31
-4.06413e-31
-6.43265e-32
-4.54057e-32
-3.23635e-32
-2.85305e-32
-2.37616e-32
-5.31561e-33
-1.1762e-33
-9.44455e-37
-5.902e-37
-2.38591e-34
-9.96604e-34
-3.38733e-37
-7.15206e-37
-3.49699e-32
-1.65999e-32
-1.39889e-35
-1.65073e-36
-1.60457e-32
-3.54811e-36
-1.78239e-36
-2.03029e-36
-1.33053e-35
-2.86758e-34
-2.6609e-31
-6.6547e-31
-6.42955e-36
-3.34308e-31
-1.37684e-30
-3.38008e-31
-4.16906e-31
-1.64068e-30
-4.31187e-31
-1.85433e-33
-5.59289e-38
-5.79424e-31
-3.31747e-37
-9.87166e-30
5.65809e-39
-2.93719e-30
-8.19917e-35
-2.28173e-34
-1.813e-37
-4.35526e-30
-5.32288e-30
-5.44177e-30
-2.00671e-33
-8.66649e-30
-1.04604e-29
-9.05939e-34
-8.13356e-29
-3.22635e-29
-6.07343e-35
-4.07332e-38
-1.5513e-27
-9.97655e-29
-8.58621e-34
-1.02961e-38
1.17013e-40
-3.62794e-33
-1.25576e-31
-1.4588e-30
-4.64065e-34
-1.13499e-34
-5.47395e-31
-4.16895e-31
-5.44224e-39
-1.00642e-36
-2.42932e-31
-1.74799e-31
-3.24112e-34
-1.53235e-31
-1.27752e-31
-6.00879e-35
-4.06173e-31
-9.27501e-32
-9.59282e-32
-8.84052e-32
-8.56173e-35
4.08306e-43
-4.79389e-35
-8.54218e-32
-9.52235e-32
-1.07339e-31
-1.18201e-31
-3.69013e-36
-4.14827e-32
-5.18522e-32
-2.41661e-40
-8.05721e-38
-9.29817e-38
-9.31376e-31
-1.74302e-30
-1.02858e-30
-1.01782e-30
-1.29708e-32
-9.38704e-34
-1.2126e-30
-1.95847e-31
-4.31576e-31
-1.92708e-32
-1.57025e-32
-1.23576e-32
-1.6614e-35
-2.73496e-33
-2.45735e-33
-1.38815e-38
-5.09498e-34
-1.15541e-37
-1.18493e-34
-3.66351e-34
-9.67449e-37
-7.13868e-33
-7.48248e-33
-6.88284e-33
-1.50566e-35
9.03732e-41
-2.88109e-32
-3.02801e-32
-3.18817e-35
-2.98516e-35
-1.26745e-31
-5.42196e-34
-1.58673e-31
-6.42437e-31
-7.95183e-34
-7.77584e-35
-7.5033e-31
-2.06053e-31
-3.32069e-34
-1.72558e-31
-1.04261e-30
-3.85784e-33
-1.02767e-33
-1.25761e-30
-1.2065e-33
-1.41327e-30
-3.43523e-35
-6.14632e-35
-2.31504e-33
-2.08383e-30
-3.37233e-33
-2.73921e-30
-2.38481e-34
-3.4318e-33
-5.12899e-30
-2.38422e-29
-7.17821e-37
1.56114e-39
-1.89175e-29
-3.75484e-29
-1.75657e-33
-9.59423e-33
-1.68319e-28
-4.43677e-29
-2.09754e-34
-9.9167e-36
-6.42219e-38
-1.52273e-33
-1.06222e-35
-2.13115e-31
-5.19185e-31
-4.05543e-31
-2.96652e-35
-5.02184e-34
-1.33646e-34
-6.68848e-37
-1.21471e-31
-4.72819e-31
-3.84147e-31
-7.6444e-32
-1.9826e-34
-2.834e-31
-5.96429e-32
-6.79824e-32
-6.18967e-32
-5.45444e-32
-1.1591e-39
2.77136e-41
-5.5569e-32
-5.96538e-32
-2.78604e-34
-2.90223e-31
-2.5466e-36
-1.03227e-31
-1.35069e-34
-1.46113e-31
-2.38713e-34
-3.36043e-31
-1.3605e-31
-1.0137e-30
-3.92622e-34
-3.44303e-36
-5.67188e-30
-1.68397e-35
-2.4194e-34
-3.61822e-31
-2.22431e-36
-1.26325e-35
-3.04716e-32
-6.75234e-33
-2.51373e-35
-1.97519e-37
-8.44918e-38
-3.26833e-36
-1.12896e-33
-2.68084e-34
-4.47648e-42
-5.67156e-39
-3.76384e-33
-9.40596e-34
-1.35306e-36
-3.645e-33
-1.65039e-36
-1.48505e-32
-1.03494e-36
-6.54262e-32
-1.7155e-32
-1.95588e-39
-1.15008e-34
-1.8276e-34
-7.00536e-38
-8.28423e-37
-8.10749e-36
-9.75848e-32
-3.73906e-34
-1.12913e-31
-3.56352e-34
-4.59519e-31
-6.15763e-35
-5.49737e-31
-8.3833e-38
-5.32207e-38
-6.70297e-31
-1.43544e-38
-1.27025e-33
-9.72788e-31
7.53609e-44
-1.14964e-30
-6.69627e-36
-6.31458e-30
-1.55308e-33
-9.09127e-30
-1.13238e-29
-3.17632e-29
-4.66431e-30
-2.76612e-29
-2.84763e-33
-8.7076e-29
-5.92385e-29
-1.29673e-33
-5.29501e-33
-8.45992e-33
-1.21175e-29
-5.98906e-30
-9.37237e-31
5.67994e-39
-9.32673e-39
3.43253e-38
-1.64144e-30
-5.24907e-34
-2.33059e-31
3.46163e-38
-6.02978e-31
-4.78807e-31
1.08646e-38
-2.40293e-36
-2.73486e-31
-1.02655e-34
-2.0992e-35
3.06552e-39
-1.81441e-31
-1.48864e-35
-6.54904e-31
-1.55458e-31
-1.09375e-34
-1.62546e-34
-1.20189e-41
-4.09866e-32
-4.65624e-32
-5.02063e-32
-2.23474e-31
-2.1707e-42
-8.012e-32
-6.61895e-37
-1.39019e-31
-1.89932e-31
-3.61828e-31
-1.29205e-33
-3.02199e-31
-9.87263e-31
-2.41563e-30
-1.37528e-33
-3.49762e-31
-2.02616e-31
-3.15111e-32
9.83702e-43
-1.86004e-32
-9.71957e-36
-5.87541e-35
-1.2381e-32
-2.86694e-33
-1.4375e-36
-2.26795e-33
-6.16406e-34
-1.344e-34
-3.19602e-42
-3.12715e-38
-5.82535e-34
-1.99494e-37
-2.32835e-33
-2.01885e-33
-9.08279e-36
-9.26432e-33
-8.53007e-33
-9.63867e-33
-1.34675e-36
-3.14391e-36
-3.89782e-32
-3.88725e-32
-7.33226e-35
-4.78619e-32
-8.2859e-35
-4.88742e-31
-6.0053e-35
-3.36843e-34
-2.56622e-31
-2.73774e-31
-2.8521e-31
-5.90377e-34
-5.44145e-34
-2.3662e-38
-4.34876e-31
-1.92118e-33
-6.27102e-38
-5.43646e-31
-6.5234e-38
-3.01797e-30
-3.43753e-30
-1.74574e-29
-5.23156e-30
-6.39809e-30
-4.09385e-34
-1.14533e-29
-7.47544e-35
-2.55691e-29
-4.83576e-29
-3.09754e-33
-8.70598e-33
-2.66313e-35
-9.29228e-29
-8.60717e-30
-4.43344e-30
-2.50457e-30
-1.69347e-30
3.471e-39
-4.8953e-34
8.075e-39
-2.36007e-31
-7.36935e-31
-5.61543e-31
1.44312e-37
-1.47635e-30
-2.87602e-31
8.22441e-39
7.23267e-39
-1.86422e-31
-4.70935e-35
-9.35243e-39
-3.28035e-35
-1.22414e-31
-1.06963e-34
-1.01032e-31
-2.91869e-35
-1.15568e-31
-2.52785e-39
-1.10344e-35
-1.59624e-34
-4.2632e-32
-3.78822e-32
-3.76668e-32
3.95854e-41
-2.36828e-35
-9.95812e-32
-1.42784e-34
-1.88903e-31
-3.2673e-31
-6.56815e-34
-4.05551e-33
-9.50548e-34
-1.11433e-33
-2.39896e-31
-1.36251e-31
-6.96821e-36
-6.04693e-32
-7.08011e-40
-1.5081e-37
-3.25948e-36
-6.51122e-36
-6.71144e-33
-1.42372e-37
-1.30888e-33
-1.51467e-33
-5.93415e-37
-9.09773e-35
-3.20185e-37
-7.01906e-39
-3.01519e-34
-3.60678e-37
-1.30165e-33
-5.25967e-33
-8.37491e-40
-9.19403e-37
-5.83087e-33
-2.21122e-32
-1.68406e-35
-2.27838e-32
-2.70398e-32
-3.87016e-36
-2.89208e-32
-2.93981e-32
-3.10226e-32
-1.38629e-31
-1.42927e-34
-1.44283e-34
-6.81306e-31
-2.51213e-35
-2.03974e-31
-4.97288e-34
-2.64535e-31
-5.66313e-34
-1.161e-30
-7.0261e-35
-1.46033e-33
-5.7503e-33
-1.85193e-33
-2.0398e-30
-2.83366e-30
-3.45196e-30
-4.38508e-30
-2.0497e-33
-2.74291e-29
-7.72716e-33
-1.4313e-29
-6.85944e-35
-5.98464e-29
-8.09735e-28
1.57244e-35
-7.69119e-29
-2.89792e-29
-3.4258e-30
-2.95281e-34
-4.20758e-35
-2.14429e-31
4.02525e-39
-2.54047e-33
-4.09936e-35
-1.53422e-31
-1.10944e-31
-4.99475e-34
-4.74071e-36
-9.49869e-31
-3.4589e-34
-3.725e-35
-2.49923e-36
-1.30204e-31
-1.17496e-31
-5.41105e-37
-1.10971e-34
-8.85144e-32
-8.39763e-35
-1.83111e-35
-6.63905e-42
-7.50277e-32
-9.01888e-35
-9.26743e-32
-9.00882e-35
-2.24145e-34
-2.28384e-36
-1.6816e-36
-4.42482e-39
-2.28123e-31
-7.58592e-32
6.48943e-40
-1.74275e-34
-3.65375e-31
-1.09753e-37
-9.19719e-39
-6.50297e-36
-1.84179e-30
-1.08202e-31
-1.40678e-36
-3.98888e-32
-3.66388e-32
-2.38022e-35
-2.17474e-32
-1.88063e-32
-4.49796e-36
-3.48192e-38
-1.94208e-36
-3.68965e-33
-8.94399e-34
-1.91185e-37
-2.01865e-34
-1.84709e-37
-5.58752e-35
-1.94139e-34
-7.02342e-38
-3.30996e-33
-3.16762e-33
-4.9113e-39
-3.32275e-36
-1.17743e-36
-6.06727e-32
-1.52652e-32
-6.45139e-32
-3.49716e-36
-5.07497e-35
-1.42542e-34
-1.14332e-34
-8.48571e-32
-1.7507e-35
-1.76466e-34
-4.64522e-35
-1.13627e-31
-1.16449e-34
-2.16999e-35
-5.746e-31
-1.8663e-31
-7.05899e-31
-7.71294e-31
-8.88736e-31
-1.29549e-38
-1.73541e-33
-5.87763e-37
-1.75419e-30
-1.99155e-30
-2.28875e-30
-1.92368e-33
-7.47285e-38
-1.04371e-34
-1.99939e-33
-1.40831e-29
-2.80262e-29
-7.76073e-29
-8.70713e-28
2.95315e-36
-1.44401e-33
-1.31269e-29
-2.43691e-34
-3.22472e-35
-4.59483e-35
-4.88064e-36
1.02428e-40
-6.71647e-34
-1.33613e-31
-9.50268e-32
-1.11913e-36
-2.46557e-31
-2.86937e-36
-1.55854e-31
-1.54854e-31
-1.17844e-31
-1.02551e-39
-9.36711e-32
-4.93396e-35
-7.27683e-32
-7.95871e-32
-9.85558e-35
-7.17797e-35
-1.7543e-35
-1.92671e-38
-6.83753e-32
1.87474e-40
-7.29323e-32
-1.34412e-34
-8.65931e-32
-7.07258e-39
-4.45498e-36
-1.37929e-34
-7.2546e-31
-5.27472e-35
-9.92748e-35
-1.9021e-31
-3.70297e-34
-7.88191e-31
8.3448e-38
-6.90384e-31
-3.402e-31
-8.67993e-37
-3.24123e-35
-1.4973e-35
-3.53895e-35
-6.0638e-35
-2.62005e-35
-1.15348e-32
-2.45001e-36
-2.59801e-33
-2.41075e-33
-5.01411e-34
-6.26609e-34
-5.03583e-37
-1.34235e-34
-5.13892e-37
-2.82377e-35
-2.58883e-37
-4.86311e-34
-5.7123e-34
-2.28012e-33
-1.64716e-40
-1.52642e-39
-9.78294e-40
-4.0423e-32
-1.03879e-32
-4.47203e-32
-3.28866e-35
-4.63065e-32
-1.17191e-32
-4.03067e-35
-5.48789e-32
-6.34473e-35
-6.76191e-32
-7.03319e-32
-7.25756e-32
-1.92005e-38
-1.06023e-35
-4.01045e-31
-2.09469e-35
-4.89298e-31
-3.1399e-33
-6.95093e-31
-7.29444e-34
-9.62901e-31
-1.36444e-37
-5.71399e-34
-3.05677e-33
-2.93249e-34
-2.24741e-33
-1.75632e-34
-4.48262e-30
-1.7598e-33
-1.30908e-29
-1.19296e-28
-3.55473e-28
-1.7124e-33
-1.53774e-34
-1.23568e-29
-6.45485e-30
-3.84286e-30
-2.62649e-30
-4.26461e-31
-3.22596e-31
1.37169e-38
-5.20959e-34
-3.46417e-31
-3.02044e-31
-2.37923e-31
-1.95542e-31
2.85658e-39
-4.56415e-35
-3.93448e-31
-1.01483e-31
2.72215e-38
-6.59203e-32
6.19476e-41
-6.3632e-32
-5.28707e-32
-7.50914e-35
-1.98169e-31
-5.32868e-32
-5.16546e-35
-5.09895e-32
-9.66577e-35
-6.75188e-35
-5.78749e-32
-7.52468e-32
-8.0363e-35
-9.6915e-32
-4.70526e-39
-1.6525e-35
-5.66641e-35
-4.12509e-39
-1.51132e-30
-3.05494e-31
-2.85469e-30
-6.25554e-34
-3.09668e-31
-1.8986e-36
-1.36749e-36
-1.19242e-36
-1.45839e-35
-1.11844e-32
-8.88563e-36
-8.38478e-33
-1.9879e-36
1.12783e-42
-1.70066e-33
-6.14476e-33
-1.20987e-37
-1.97173e-40
-5.03366e-41
-8.2124e-40
-5.73499e-39
-7.94839e-35
-2.40461e-37
-3.64735e-34
-8.46517e-38
-1.61984e-33
-1.46143e-36
-1.57578e-36
-1.42691e-35
-7.54134e-33
-7.17371e-33
-3.06033e-32
-2.87242e-32
-3.40168e-32
-2.23744e-36
-3.51161e-32
-4.40606e-36
-1.58751e-34
-4.33316e-32
-3.90072e-35
-5.42965e-32
-3.1468e-35
-2.53603e-31
-8.40425e-35
-3.16647e-37
-3.21805e-31
-5.42965e-38
-7.44293e-35
-7.15564e-38
-1.6629e-33
-1.29979e-37
-8.8004e-34
-1.10761e-30
-1.31987e-30
-7.94211e-34
-1.02948e-29
-4.54839e-34
-2.87748e-33
-1.20865e-29
-2.87972e-29
-6.94873e-29
-3.88284e-29
-1.43614e-29
-6.58544e-30
-3.86242e-30
-2.2567e-30
-6.3557e-30
-2.92362e-31
-3.49111e-35
4.14541e-41
-3.18069e-34
-5.66949e-32
-1.94726e-31
-6.51372e-31
-1.23721e-31
1.66205e-38
-4.32312e-37
-9.14783e-32
-2.66949e-31
3.00037e-38
-3.96838e-35
1.24974e-38
-1.68723e-31
-2.69371e-35
-1.50281e-31
-1.2957e-31
-3.09254e-32
-3.99444e-35
-1.60505e-31
-4.38204e-32
-4.51095e-32
-4.94787e-32
-1.08368e-34
-6.17249e-35
-7.59374e-32
-1.08707e-37
-1.78902e-34
-2.25406e-36
-1.04704e-34
-6.15753e-31
-2.63738e-30
-1.67346e-30
-2.89966e-31
-1.11808e-36
-7.77524e-35
-6.67589e-32
-4.42407e-32
-8.23077e-36
-2.83718e-32
-5.82452e-36
-5.16613e-36
-5.56944e-33
-4.30055e-36
-4.31039e-33
-1.08161e-33
-1.83977e-40
-9.50042e-34
3.19423e-41
-2.89836e-42
7.84278e-43
-5.92797e-35
-2.32528e-34
-6.21973e-38
-2.42606e-37
-2.45238e-39
-9.10137e-37
-3.24262e-40
-3.01688e-39
-1.53713e-36
-1.18719e-40
-5.01886e-33
-2.16342e-32
-2.12156e-32
-4.838e-36
-2.5668e-32
-1.06098e-31
-8.31293e-38
-8.65741e-36
-3.34307e-32
-6.50939e-36
-1.5548e-31
-3.0662e-34
-2.42357e-39
-2.15273e-34
-1.95757e-33
-2.80351e-34
-1.77667e-41
-2.25153e-38
-4.35562e-31
-1.55619e-39
-2.17647e-37
-4.10401e-34
-1.64086e-33
-5.66784e-30
-1.05647e-33
4.65722e-38
-2.0956e-29
-3.53165e-33
-1.01492e-28
-2.49924e-33
-5.29257e-34
-7.65678e-30
-3.48767e-29
-2.31891e-30
-1.54793e-30
-1.01089e-30
-7.41788e-31
-5.75729e-35
3.31359e-41
-2.59165e-34
-6.46041e-37
-8.05099e-35
-4.53793e-31
-4.57771e-34
-1.13773e-36
-1.71884e-34
-2.06725e-31
-1.92121e-31
3.38107e-38
-5.91775e-39
0
-1.00282e-34
-5.89791e-35
-2.49935e-34
-1.24441e-31
-1.2136e-31
-1.18669e-31
-1.14371e-31
-2.89603e-31
-3.66482e-32
-5.17452e-35
-3.98072e-35
-5.30538e-35
-6.49727e-32
8.91536e-39
-1.12663e-31
-1.69497e-31
-2.77149e-31
-1.58556e-36
-1.253e-36
-2.1532e-30
-1.5717e-31
-1.88019e-36
-5.68492e-32
-4.03381e-32
-2.85576e-32
-2.26138e-35
-1.95938e-32
-8.811e-37
-4.17595e-33
-3.49525e-33
-7.13736e-37
-2.89066e-33
-1.03816e-37
-4.78168e-37
-7.05521e-34
1.36863e-42
1.31323e-46
-2.60617e-39
-4.38573e-35
-1.74296e-34
-1.69476e-40
-2.22299e-37
-6.71299e-34
-6.72678e-37
-6.20771e-37
-6.8339e-37
-7.2039e-37
-3.26458e-33
-1.2801e-36
-1.35543e-32
-1.48086e-32
-1.55545e-32
-7.26684e-36
-2.85436e-35
-7.51943e-35
-2.14292e-35
-1.54803e-34
-1.09006e-31
-1.2208e-34
-4.83992e-31
-1.41229e-34
-1.56647e-34
-1.78154e-31
-3.92268e-34
-1.30388e-34
-2.70459e-34
-1.34048e-30
-4.47134e-37
-1.01203e-34
-5.86983e-34
-1.70984e-33
-4.37105e-30
-6.26965e-30
8.13116e-38
-6.72541e-29
-2.06634e-33
-7.79329e-29
-8.81144e-29
-3.99982e-29
-5.60325e-35
-9.67379e-30
-1.65805e-35
-9.49938e-31
-8.18506e-36
-3.59285e-34
-4.08873e-31
4.77957e-38
-1.66575e-34
-3.49301e-32
-4.50723e-35
-7.36245e-32
-2.80087e-31
-1.35217e-34
-2.03272e-31
-1.84864e-31
-1.43128e-31
-1.28595e-36
-7.44016e-36
4.44358e-43
-1.60623e-34
-9.30393e-32
-9.09346e-32
-8.73201e-32
-3.61494e-31
-2.84472e-34
-5.30971e-36
-3.82163e-31
-9.66636e-32
-1.22859e-31
-3.09285e-35
-1.55962e-34
-4.60081e-32
2.54466e-39
-9.37038e-35
-1.4286e-31
-2.3313e-31
-1.30462e-36
-5.22004e-31
-5.3662e-31
-3.59275e-31
-2.21984e-31
-1.48127e-31
-2.25214e-36
-1.96502e-32
2.90546e-39
-1.3103e-32
-1.13371e-32
-2.82219e-33
-1.89224e-36
1.60254e-40
-2.14333e-33
-1.34747e-36
-4.76273e-34
-3.14255e-40
-1.08153e-37
-4.46869e-42
-3.95943e-41
-2.93195e-38
-2.29683e-38
-8.3647e-41
-4.24048e-34
-5.25686e-34
-2.10572e-36
-1.88177e-33
-2.07635e-33
-2.2296e-33
-1.24737e-36
-1.17632e-39
-1.02814e-32
-1.86711e-37
-1.12498e-32
-2.75262e-35
-4.99341e-32
-5.29106e-32
-2.59899e-39
-1.77628e-35
-6.98552e-32
-7.40977e-32
-6.35981e-34
-9.06864e-35
-1.39342e-39
-2.19409e-34
-1.51427e-31
-6.64639e-31
-3.83315e-38
-2.00053e-33
-4.56859e-33
-1.32422e-30
-2.02211e-38
-2.32152e-30
-3.27839e-30
-3.20998e-34
-3.13178e-33
-1.30112e-29
-1.59514e-33
-5.1951e-29
-1.99267e-28
-2.36614e-29
-1.04004e-35
-4.87953e-34
-1.47907e-35
-2.84692e-30
6.72753e-37
-3.80255e-31
-6.84051e-32
1.25928e-38
3.65964e-38
-9.77647e-32
-8.1614e-32
-6.33778e-32
-2.35296e-34
-1.71287e-31
-1.33429e-31
-1.13783e-31
-1.11447e-31
-1.69765e-36
-2.02932e-38
-6.19849e-35
-7.81996e-32
-6.52937e-32
-5.92016e-35
-1.44852e-35
-2.54935e-31
-6.36923e-32
-7.59453e-32
-6.34507e-32
-2.34988e-35
-3.64825e-31
-2.41496e-35
-7.6843e-38
-1.91242e-35
1.67989e-39
-6.7737e-32
-1.01943e-34
-1.2949e-34
-2.92389e-31
4.07336e-38
-9.78766e-38
-2.30885e-31
-5.86094e-31
-2.50971e-32
-1.78363e-32
-1.40763e-32
-1.6094e-35
-1.05449e-32
-3.3232e-32
-6.58879e-36
-1.50406e-33
-7.38633e-37
-1.54045e-33
-1.36449e-33
-7.75652e-38
-5.08931e-38
-1.79697e-38
-1.74692e-38
-1.18212e-37
-2.0273e-35
-1.95805e-38
-3.07918e-34
-3.36651e-34
-4.23373e-38
-1.38815e-33
-1.54121e-33
-2.48267e-36
-1.42198e-33
-5.98801e-33
-2.5304e-36
-6.64013e-33
-6.9485e-33
-6.57258e-33
-9.00755e-33
-1.02557e-32
-3.85927e-32
-5.60008e-38
-3.91604e-32
-1.36831e-34
-2.64604e-35
-5.75965e-32
-2.0062e-35
-7.64889e-35
-3.48572e-31
-1.07938e-31
-4.85861e-31
-1.7506e-34
-1.03627e-34
-3.31392e-37
-1.07413e-30
-1.3216e-33
-6.11751e-33
-2.46528e-30
1.56682e-37
-5.60328e-30
-5.89669e-33
-2.10436e-33
-6.345e-33
-3.02837e-29
-1.52576e-29
-7.92554e-35
-1.39818e-39
-4.44478e-35
-1.42224e-33
-2.25024e-34
-2.57448e-31
-3.66865e-35
1.6723e-43
-9.34088e-35
-6.87246e-32
-5.48868e-32
-5.50641e-32
-5.53516e-35
-4.26803e-34
-1.31617e-34
-2.41867e-36
-2.96557e-31
-8.24043e-35
-3.39888e-36
-5.74873e-32
-5.0572e-32
-4.78841e-32
-9.8974e-36
-1.06006e-34
-3.74648e-32
-5.41073e-32
-4.92321e-32
-1.5762e-34
6.43041e-40
-2.66023e-31
-7.0595e-35
-2.11742e-34
-3.17857e-35
-3.84684e-35
-5.63249e-32
-8.62718e-32
-1.22515e-34
-7.56006e-31
-2.50701e-31
-1.94378e-34
-2.68035e-35
-9.82644e-32
-4.29829e-37
-1.19109e-32
-3.61361e-36
-7.90616e-33
-4.34638e-38
-2.48184e-32
-5.2954e-33
-4.67433e-33
-1.07661e-33
-2.23203e-37
-3.94624e-33
2.45727e-40
-2.22662e-34
-5.90683e-38
-1.17682e-37
-5.62423e-38
-2.68524e-40
1.58226e-42
-2.46441e-34
-2.94369e-37
-8.52113e-34
-1.0108e-33
-6.61358e-37
-9.1019e-34
-4.54382e-36
-4.22585e-33
-4.74308e-33
-1.88878e-32
-5.2353e-33
-5.55441e-33
-5.33268e-33
-4.03759e-36
-8.74592e-35
-1.07655e-34
-1.29353e-31
-2.58441e-38
-3.96167e-35
-2.07372e-35
-4.95724e-32
-3.97342e-38
-2.63163e-31
-1.41348e-34
-3.21165e-31
-4.23442e-31
-5.3606e-31
-2.27306e-34
-1.44738e-34
-2.57475e-37
-5.02517e-30
-6.09108e-34
-1.29862e-34
-4.02234e-30
-6.75968e-30
-1.26771e-29
1.74857e-36
1.20745e-36
-9.9116e-30
-5.38714e-30
5.90751e-37
4.57807e-37
-1.44462e-30
-1.07887e-30
-1.71455e-34
-3.97859e-32
1.04106e-38
-1.42581e-35
-1.16087e-32
-3.9596e-35
-1.39e-31
-1.16239e-31
-9.52176e-32
2.56822e-37
-6.83198e-32
-1.20869e-33
-5.5992e-32
-1.85218e-36
-3.81369e-35
-1.51209e-36
-3.67706e-32
-1.03075e-35
-1.86159e-37
-1.65558e-35
-3.20357e-32
-6.76586e-37
-6.24207e-36
-8.72065e-36
-1.4643e-35
-5.95004e-35
-7.91182e-35
-2.03285e-35
-1.14802e-34
-1.62522e-31
-5.91203e-32
-3.4699e-36
-1.27046e-31
-1.51383e-31
-1.32676e-31
2.04641e-38
-8.32529e-37
-6.6652e-40
-2.16484e-36
-6.95977e-33
-5.85106e-33
-5.09309e-33
-4.46653e-33
-3.54631e-33
-7.55389e-33
-8.11307e-34
3.58685e-40
-7.23068e-34
-8.93856e-42
-1.83746e-34
-3.70652e-38
-3.75316e-35
-2.79704e-41
-9.21611e-36
-5.47854e-38
-6.45659e-39
-1.52506e-34
-6.62473e-34
-4.68981e-37
-6.17865e-37
-2.71925e-33
-2.72422e-33
-6.71644e-38
-8.15009e-36
-3.42834e-33
-2.86387e-36
-2.8424e-36
-2.17824e-35
-1.6624e-35
-1.60718e-35
-5.9149e-35
-2.38535e-32
-4.01056e-35
-1.40833e-34
-4.95847e-35
-3.79559e-32
-7.70559e-38
-9.46538e-35
-2.00045e-38
-2.66494e-31
-2.98305e-31
-3.24069e-31
-3.63593e-31
-1.02837e-33
1.22563e-38
-9.47893e-31
-1.24081e-30
-1.74676e-30
-5.34631e-36
-4.57002e-30
-8.22766e-30
-1.18965e-33
-1.59137e-33
-6.65696e-30
-3.67479e-30
-9.93896e-35
-8.79474e-35
-4.92014e-34
-7.43631e-31
-1.50579e-31
-2.73771e-32
1.15097e-38
-1.28038e-35
-6.4443e-36
4.49934e-38
-9.75608e-32
-8.26489e-32
-6.34514e-32
2.74791e-37
-4.14288e-32
-1.56436e-31
-1.37096e-31
-2.19246e-34
-5.10048e-35
-2.85096e-32
-2.09803e-32
-1.00237e-34
-8.97645e-35
-2.49595e-32
-2.71309e-35
-1.08347e-34
-3.35481e-32
-3.60324e-32
-3.84709e-32
-3.93296e-35
-2.13905e-35
-6.55058e-35
-9.18931e-35
-1.171e-31
-9.28537e-35
-2.53539e-31
-3.52459e-37
-1.94553e-38
-8.76328e-32
1.98935e-38
-4.60541e-35
-3.26259e-35
-2.56969e-32
-4.86453e-33
-2.88281e-37
-3.77648e-33
-3.08391e-33
-2.82064e-33
-2.64459e-33
-1.54247e-37
-4.84099e-37
-1.70534e-37
-4.64569e-37
-3.03763e-37
-1.19456e-37
-2.71506e-35
-7.3639e-39
-6.81921e-36
-1.02532e-34
-1.09697e-37
-9.79959e-35
-1.52845e-36
-3.93396e-37
-4.02442e-37
-7.526e-33
-5.66838e-36
-1.97504e-33
-1.83297e-33
-2.33053e-33
-4.72398e-40
-2.43678e-36
-1.00645e-32
-2.36821e-38
-2.30887e-38
-1.2324e-32
-5.54208e-35
-1.44324e-32
-7.37512e-32
-7.6877e-32
-8.50119e-32
-1.05991e-34
-1.15923e-34
-1.46104e-34
-2.7101e-36
-1.36684e-33
-2.66356e-31
-3.16551e-31
-3.74564e-31
8.55254e-39
-1.30735e-34
-7.23021e-35
-5.02357e-30
-1.89246e-30
-3.17661e-30
-1.92189e-33
-7.6265e-30
-7.14442e-30
-1.7787e-29