/*--------------------------------*- C++ -*----------------------------------*\
| =========                 |                                                 |
| \\      /  F ield         | OpenFOAM: The Open Source CFD Toolbox           |
|  \\    /   O peration     | Version:  2006                                  |
|   \\  /    A nd           | Website:  www.openfoam.com                      |
|    \\/     M anipulation  |                                                 |
\*---------------------------------------------------------------------------*/
FoamFile
{
    version     2.0;
    format      ascii;
    class       volScalarField;
    location    "20000";
    object      I2_28;
}
// * * * * * * * * * * * * * * * * * * * * * * * * * * * * * * * * * * * * * //

dimensions      [0 0 0 0 0 0 0];


internalField   nonuniform List<scalar> 
14751
(
4.86673e-64
1.60586e-54
-1.91345e-51
-7.2528e-51
-1.6932e-51
-4.31608e-54
-3.43676e-53
-4.02144e-52
-1.62374e-53
-1.55509e-56
-1.3547e-53
-5.93773e-56
-6.16051e-54
-1.82843e-55
-8.49024e-52
2.42042e-55
-1.43864e-52
-5.78434e-55
-3.71244e-56
-1.37665e-55
-1.55405e-54
-1.48315e-56
-1.73896e-55
-1.32172e-55
-1.00085e-54
-5.00104e-55
4.30663e-59
-1.51031e-56
-6.08938e-55
-2.45586e-56
-2.49436e-55
-1.10923e-55
-5.86365e-59
-7.4924e-56
-4.13077e-57
-2.13062e-56
-5.71455e-57
6.67014e-61
1.80171e-60
2.10548e-62
1.17714e-56
-5.83157e-53
6.26816e-57
-3.41343e-54
8.66966e-58
1.31325e-57
-3.19653e-54
1.12921e-57
1.9084e-65
1.47482e-57
-3.09314e-54
1.46042e-57
-1.38401e-58
-1.57869e-58
-7.35499e-58
-7.07942e-58
1.92382e-57
-3.45068e-54
-3.66649e-54
-6.26527e-53
4.46164e-56
2.85002e-55
-2.86771e-52
1.66842e-55
-5.13221e-56
2.8331e-56
-2.47175e-53
6.9027e-56
-6.89466e-54
-5.74011e-54
-8.14971e-54
5.46965e-57
-6.12307e-55
-1.65408e-54
-9.95435e-54
-1.4757e-55
-1.03349e-54
-1.13745e-54
6.03133e-56
-8.05825e-53
-1.07513e-52
-8.1147e-53
-3.47328e-55
1.81916e-55
-1.34408e-52
-2.09804e-52
-1.62354e-52
1.93004e-55
0
1.13781e-54
-9.17691e-52
-2.28993e-55
-5.41686e-54
-2.79057e-55
-2.31452e-55
-3.21391e-55
-9.95539e-53
7.80353e-56
2.4637e-59
7.25535e-47
-1.65327e-45
8.21156e-47
-1.21829e-47
2.76655e-48
7.85377e-46
-2.30335e-44
2.66401e-45
-2.02162e-44
3.01447e-48
-1.74658e-44
1.45837e-45
-1.42151e-44
3.06386e-46
-9.90185e-47
9.19331e-48
-8.35934e-47
1.24034e-47
-1.40117e-45
5.13996e-49
1.76672e-47
-1.20185e-45
-1.32069e-45
-1.4074e-45
3.32371e-48
1.07529e-49
5.04266e-48
-6.53644e-46
3.83637e-48
-1.38954e-48
-1.1966e-48
6.7169e-49
-8.796e-47
-9.15497e-47
-2.41963e-49
-8.04582e-47
-8.5325e-47
9.97814e-49
-1.99961e-49
-4.56069e-50
9.73805e-52
-2.41547e-51
8.20713e-53
-3.24625e-51
1.15502e-49
-4.53325e-48
-5.5677e-49
-8.98495e-49
2.63261e-50
1.86496e-51
-4.69392e-50
4.36027e-51
-1.12086e-50
7.04441e-51
-4.63637e-50
-7.78577e-51
2.32191e-51
-4.57961e-51
4.01182e-50
-5.9233e-49
5.33662e-50
1.02139e-47
-1.18805e-46
-6.78927e-47
-1.06752e-46
1.32295e-47
-1.2448e-48
-1.22189e-48
1.20372e-47
-1.70681e-46
2.47656e-47
7.38737e-47
-6.83671e-46
-8.66075e-46
9.12844e-47
1.34809e-46
-1.06254e-45
-1.10213e-45
9.46994e-47
1.0261e-46
-1.66287e-45
1.1635e-46
-1.71835e-47
-9.25238e-47
1.11641e-45
-1.04044e-44
9.46207e-46
-7.52355e-48
2.36323e-48
-2.32107e-48
1.16381e-45
-1.74317e-44
1.30692e-45
-1.08697e-47
3.36099e-46
-5.49018e-45
3.3896e-46
-2.13611e-49
2.02061e-50
2.25919e-43
-1.28479e-43
2.26283e-43
1.2397e-41
6.81045e-43
-8.42899e-42
9.03137e-42
1.03071e-41
4.23755e-42
-5.08352e-42
3.71884e-42
9.7324e-46
-3.13495e-42
6.36796e-43
-1.00405e-41
3.43231e-42
1.31821e-44
1.53448e-43
-2.90915e-43
2.77379e-44
1.00839e-43
-1.33817e-43
1.18222e-42
-3.33454e-42
-6.20073e-43
-3.69328e-44
-1.64299e-42
3.27244e-44
3.08672e-44
1.99379e-43
-6.11999e-43
-5.21394e-43
-1.26571e-43
-1.24218e-44
5.19673e-44
-1.03069e-44
-1.01093e-44
-1.36788e-43
5.85946e-44
1.5628e-46
1.65192e-47
-1.03407e-45
1.5553e-44
2.02512e-45
1.18542e-44
2.14927e-44
3.06983e-45
-1.75041e-46
3.64191e-46
7.53016e-46
-4.4327e-46
5.78078e-46
1.28661e-44
-4.07843e-45
2.25211e-44
-2.11854e-44
8.30929e-44
1.08403e-45
1.51986e-45
2.32834e-45
4.30967e-43
-9.43762e-46
1.13517e-42
6.00036e-43
1.00734e-44
1.47921e-42
-2.28327e-43
3.41976e-42
4.18811e-42
2.24724e-42
1.73041e-41
8.05944e-43
4.85463e-43
-3.53814e-44
1.04407e-42
1.828e-42
9.51934e-42
8.94969e-43
1.3899e-41
7.56185e-43
2.59572e-41
7.46135e-42
1.8769e-41
2.35627e-41
5.2062e-42
-1.28143e-42
7.42484e-42
-2.55531e-44
1.33065e-43
2.66634e-41
3.97635e-43
8.55983e-41
4.17398e-41
1.5931e-41
2.81546e-41
4.18629e-42
-3.26724e-43
4.32351e-42
2.91173e-50
1.51804e-44
3.29499e-39
-4.52222e-38
-5.40544e-38
-5.51034e-38
-5.65604e-38
-2.15033e-37
-2.50471e-37
-2.51001e-37
-6.79847e-38
-6.87279e-38
2.43506e-39
1.51274e-42
1.83619e-39
-7.17426e-38
1.79905e-39
4.64086e-39
-2.39521e-37
-1.90655e-37
-2.56402e-37
2.5779e-39
-1.17051e-39
-2.1989e-37
-3.46429e-38
-9.22305e-39
3.89105e-40
-1.10338e-37
1.02092e-39
-2.08307e-40
1.06501e-39
-9.90157e-38
-1.03617e-37
-6.89314e-39
-1.85828e-39
1.32337e-41
-9.72583e-39
-9.71932e-39
-1.67239e-39
3.23822e-41
-8.73866e-39
1.98623e-40
4.92425e-41
-2.20844e-39
-4.70861e-40
2.40934e-41
-2.18267e-42
-5.14372e-42
-3.17004e-43
1.51762e-44
6.93619e-43
2.36208e-42
-1.31414e-40
4.94194e-41
-1.33183e-40
2.05642e-41
-6.06283e-40
2.41759e-41
2.74488e-40
-1.33523e-39
-7.80258e-39
3.71171e-40
-1.7383e-39
1.35887e-39
-5.00051e-41
-1.06746e-38
-2.45545e-39
-9.12435e-39
1.91746e-38
-3.20053e-38
-9.17229e-39
5.35483e-40
-8.29184e-39
2.72918e-39
4.77161e-43
3.11114e-44
2.99579e-44
1.61827e-38
-6.20085e-38
1.49212e-38
4.08385e-38
-1.7995e-37
2.02629e-37
-3.90627e-37
8.36008e-38
-1.9082e-40
3.09985e-38
-1.64849e-37
2.89711e-38
3.47829e-38
-1.7348e-37
-1.85746e-38
2.99589e-38
-4.18776e-38
3.70443e-39
-1.53208e-37
-3.40801e-38
-1.01902e-38
-9.9095e-39
1.0594e-39
6.5571e-42
6.48651e-38
-1.33281e-36
-1.40717e-36
5.2263e-37
-4.66169e-36
-6.2527e-35
-6.13203e-36
-7.77387e-36
-8.10787e-36
-8.19999e-36
2.03329e-37
5.49662e-37
-3.85787e-35
7.16041e-37
-3.4017e-38
-4.36863e-38
-1.12913e-35
-1.0054e-35
6.17993e-38
-2.0949e-43
3.14116e-37
-4.24065e-35
2.9283e-37
-4.60584e-38
-1.82787e-38
-2.63932e-36
-8.55494e-38
9.33172e-38
-1.17425e-35
-1.15875e-35
9.16659e-38
-8.83338e-39
5.28756e-41
5.76432e-39
-6.6576e-37
-6.31793e-37
-6.48167e-37
8.69057e-39
-2.41304e-36
3.45527e-39
-6.27104e-37
-1.44898e-37
7.17323e-39
-4.47927e-38
-1.31643e-37
-3.32842e-38
-3.99729e-38
1.33179e-39
2.801e-40
-7.08898e-39
-9.08859e-39
-3.28067e-38
1.64382e-39
8.47672e-39
-8.9209e-38
-4.48087e-37
-4.31194e-37
-1.21514e-37
-4.15371e-37
-3.6074e-37
4.2412e-38
2.50629e-37
-1.8523e-36
-3.20929e-37
5.45849e-38
2.79882e-37
-1.36599e-36
-1.33614e-36
2.90039e-37
-5.74182e-36
1.33393e-36
-8.76757e-38
-4.68881e-39
3.96538e-39
9.53334e-37
-4.60883e-36
3.53993e-36
-4.19465e-36
-2.96255e-38
-4.91061e-36
-1.35362e-36
-4.84643e-36
8.94912e-37
-4.49049e-43
8.06726e-37
-2.35577e-36
-1.85762e-35
6.34273e-36
-5.16093e-36
5.35464e-36
-1.92682e-35
2.11832e-36
1.77703e-36
-2.0165e-35
-9.32414e-37
-4.91828e-36
1.79448e-38
2.01846e-38
2.12022e-37
-1.3066e-36
2.18722e-37
7.11559e-37
-1.75958e-36
-7.73008e-35
-2.32949e-35
-4.82461e-35
2.90316e-36
-1.62654e-39
-5.09831e-39
1.52815e-36
-9.36435e-35
-9.46499e-35
2.09681e-36
-1.53245e-37
1.32031e-36
-1.47419e-34
-1.73866e-34
-3.51485e-34
2.80825e-36
9.01061e-39
-3.60839e-35
1.39654e-37
-9.21631e-38
2.71653e-37
-4.32882e-35
-3.27796e-35
-4.15838e-35
-3.52839e-35
-8.86414e-36
-9.06923e-36
-3.3481e-35
1.86599e-37
2.27593e-40
-1.26761e-40
-7.29731e-41
8.12633e-38
-7.87174e-36
-1.8906e-36
-7.48796e-36
1.04871e-37
3.66125e-41
-1.57864e-39
9.81752e-39
-4.00808e-37
-5.24835e-38
-3.74326e-37
-1.0926e-38
3.51865e-39
-2.09803e-38
9.8159e-40
-7.67817e-38
4.20334e-39
2.07811e-37
-2.29092e-36
-1.0089e-36
-3.505e-36
1.6462e-36
-3.23949e-36
1.1554e-36
-1.87401e-36
-2.91695e-36
-2.41293e-36
5.7377e-37
-7.28967e-40
5.15161e-36
-1.6272e-35
-1.77782e-36
2.40585e-35
-2.99071e-35
4.52804e-36
2.59539e-36
-3.54817e-42
-4.60987e-42
2.4535e-35
-3.84994e-35
3.87328e-35
7.85348e-36
-7.06868e-36
5.94777e-35
-2.33061e-35
2.22664e-35
7.63588e-38
-3.50263e-38
-2.0091e-38
3.14616e-35
-1.85517e-35
2.51055e-35
6.54229e-36
5.93327e-36
-8.28597e-36
6.01595e-36
1.30088e-36
2.56598e-36
-6.80029e-36
-1.16951e-36
1.76172e-37
2.49792e-37
-3.36576e-37
-6.57254e-37
-4.71281e-36
-1.95721e-35
2.49869e-35
-5.23313e-35
4.18265e-35
-1.28781e-35
7.40224e-37
1.03107e-35
6.84898e-36
8.02776e-37
5.13086e-36
1.93966e-36
1.34824e-36
-9.52808e-36
8.49094e-37
-6.38227e-35
-1.43931e-35
-1.89272e-35
8.19272e-37
2.48739e-38
-3.91526e-38
5.82142e-37
-1.83695e-35
1.00065e-37
-3.56104e-36
-3.28957e-36
-4.25346e-37
-8.8802e-36
1.35888e-36
-1.24046e-36
-8.50355e-37
1.57525e-37
4.28115e-38
6.76387e-38
-1.50642e-37
3.83516e-37
2.58681e-38
6.60141e-40
1.52257e-38
6.28862e-38
1.83564e-38
-1.71814e-40
1.70167e-40
3.26609e-41
1.80409e-39
-3.01511e-39
4.25298e-40
4.94879e-39
-7.87892e-39
1.69653e-39
-4.62031e-40
-2.67064e-40
5.96064e-38
-2.60798e-37
2.436e-37
-3.1536e-36
1.51216e-36
-1.132e-36
-1.42099e-36
-5.8524e-40
-1.78075e-36
3.02399e-37
1.40016e-39
1.66196e-36
-1.11827e-35
-9.96609e-36
-8.2421e-36
5.37415e-36
-7.14515e-36
-1.25711e-35
2.25665e-36
-3.42338e-37
-8.064e-38
7.55324e-36
-8.82291e-35
7.9013e-36
4.99825e-36
-1.02339e-34
2.71805e-35
-1.26229e-34
6.89187e-36
2.64621e-35
-5.19207e-34
-5.59036e-34
5.53846e-35
-6.77437e-35
-1.11017e-33
-5.11102e-34
-4.51003e-34
2.04522e-35
7.81714e-41
4.75281e-36
-7.64863e-35
-7.86628e-39
-5.92889e-35
1.59332e-36
7.21442e-38
1.4201e-36
-6.14807e-34
-1.41147e-34
-2.29711e-33
-2.18816e-33
-5.35816e-34
4.0502e-36
-5.04316e-34
-1.92204e-33
-1.75486e-33
2.76046e-36
1.20034e-36
-1.47979e-33
-1.37482e-33
3.54083e-36
-2.78889e-34
1.27687e-36
-2.75021e-33
2.12311e-36
-3.69057e-39
-1.56727e-40
-1.07694e-43
1.99427e-37
-2.73681e-34
-2.77237e-34
-3.17196e-34
-3.17106e-34
-2.84347e-34
6.95904e-37
-2.9737e-34
-2.79996e-34
-8.80732e-35
-3.45068e-37
-9.1486e-35
4.85184e-38
-1.61872e-38
-9.34909e-35
-2.23949e-35
-9.31098e-35
5.75397e-38
-3.89563e-40
2.06378e-38
-2.83423e-35
-5.83873e-39
6.55043e-39
-7.44893e-36
-6.73708e-39
-2.41248e-36
-5.87344e-37
-1.00987e-39
-6.12918e-37
-4.32652e-39
-9.3139e-36
-1.01955e-38
-1.03952e-35
1.69434e-38
1.25012e-38
-4.81599e-35
-5.34691e-35
3.83507e-38
-4.969e-35
-5.83039e-35
-1.40321e-37
1.70148e-40
2.4781e-37
-2.62804e-34
-1.73687e-34
-8.97133e-34
-9.95381e-34
3.37765e-36
-9.13421e-34
-1.00664e-33
-1.24042e-33
-3.15081e-36
-3.3486e-36
-1.32304e-33
5.18019e-36
-4.67056e-33
1.9558e-35
-5.08123e-33
-5.13345e-33
-5.1928e-33
-2.6963e-37
-6.78322e-36
-5.68893e-37
-3.60764e-36
-5.12733e-36
-2.85552e-36
5.78821e-36
-4.6033e-33
-8.22928e-37
-4.31397e-33
6.7248e-36
-6.15806e-38
-2.80751e-38
1.50035e-36
-7.58564e-34
1.79688e-36
6.67972e-42
-3.62578e-35
1.9977e-37
-2.18276e-33
-2.13264e-33
-7.87894e-33
-7.76885e-33
-7.33034e-33
5.99727e-37
4.28161e-37
-6.52801e-33
-6.17013e-33
-5.91671e-33
-5.53456e-33
-9.08107e-36
-2.03191e-35
-4.95376e-33
-4.08298e-36
-4.72248e-33
-4.90859e-36
-4.31351e-36
2.04253e-40
-1.09124e-41
7.87228e-39
-9.22285e-34
-4.14438e-36
-1.04757e-33
-1.06199e-33
-1.20048e-33
-9.3337e-34
-2.41279e-39
-1.01543e-33
-1.08961e-33
-1.16873e-33
-2.76503e-34
-1.13086e-33
-2.88252e-34
-2.64446e-37
-2.85345e-37
8.23019e-39
-3.10523e-34
-3.17284e-34
-8.14629e-35
-8.34783e-35
-8.01747e-35
-8.77143e-35
-8.72255e-35
-2.30849e-35
-5.55874e-36
-5.85443e-39
-3.35e-39
-1.55262e-36
-6.57925e-36
1.57918e-40
1.10411e-38
-2.67354e-34
-1.3229e-34
-1.15767e-37
5.1444e-39
-1.25598e-34
2.11621e-39
-1.21871e-40
-1.70395e-40
-1.52476e-39
-2.19561e-36
-2.17768e-33
-5.33455e-33
2.37666e-37
-2.45988e-33
-1.00824e-32
-2.41994e-33
-2.79432e-33
-1.07728e-32
-2.76114e-33
-1.11378e-35
1.83811e-38
-3.361e-33
1.26921e-37
-4.90286e-32
4.6694e-37
-1.26071e-32
-1.89071e-38
-2.25829e-37
7.46935e-38
-1.32308e-32
-1.40886e-32
-1.2443e-32
-1.88046e-36
-1.37285e-32
-1.28929e-32
-1.26577e-36
-5.11199e-32
-1.24062e-32
4.71658e-37
5.28285e-37
-1.14339e-32
-2.83043e-33
1.769e-37
-2.25086e-43
3.16759e-39
-1.58077e-35
-9.61846e-34
-1.48457e-32
-2.50866e-37
-8.22999e-37
-1.28482e-32
-1.23256e-32
2.30052e-39
-4.0807e-38
-1.08979e-32
-1.05357e-32
-8.44391e-38
-9.76758e-33
-9.44252e-33
-2.47417e-38
-3.41527e-32
-8.2981e-33
-8.56884e-33
-7.85444e-33
-7.56681e-36
3.16103e-41
-7.90058e-36
-6.99532e-33
-7.42686e-33
-7.35652e-33
-7.36504e-33
3.44598e-41
-1.84364e-33
-1.85244e-33
1.23262e-39
-7.25872e-39
8.51893e-40
-7.58239e-33
-7.66866e-33
-1.9423e-33
-5.5374e-34
-1.96021e-36
-5.02203e-37
-1.93331e-33
-5.93607e-34
-2.07452e-33
-1.3606e-34
-1.39166e-34
-1.33359e-34
-1.46237e-37
-3.94486e-35
-4.02495e-35
1.67046e-43
-1.01788e-35
-2.48595e-39
-2.57689e-36
-9.24058e-36
-4.22207e-38
-1.75925e-34
-1.79687e-34
-1.72169e-34
-1.82185e-37
3.78848e-39
-7.8105e-34
-7.96484e-34
-7.93316e-37
-7.86979e-37
-3.16221e-33
-1.33671e-35
-3.71532e-33
-1.46698e-32
-1.38966e-35
-3.46746e-36
-1.54789e-32
-4.06454e-33
-1.55347e-35
-3.0328e-33
-1.83428e-32
-6.47974e-35
-1.61397e-35
-1.82775e-32
-1.73011e-35
-1.77777e-32
6.69197e-37
-1.41831e-38
-1.68154e-35
-1.89258e-32
-1.44612e-35
-1.93104e-32
3.52716e-37
-1.96728e-35
-2.18627e-32
-7.82887e-32
1.40188e-36
3.03421e-37
-1.95883e-32
-1.98339e-32
-1.42166e-37
-1.88218e-37
-1.91747e-32
-1.81828e-32
9.54386e-39
-3.59971e-38
-2.41492e-40
-1.95725e-35
4.55709e-38
-4.61669e-33
-1.72017e-32
-1.66353e-32
-8.3871e-37
2.28433e-38
-5.00395e-38
3.07904e-39
-1.29708e-32
-5.22849e-32
-4.96908e-32
-1.12729e-32
-1.09033e-35
-4.50443e-32
-1.09985e-32
-1.06446e-32
-1.04448e-32
-1.03136e-32
1.07351e-38
7.25962e-39
-9.31569e-33
-9.89339e-33
-3.82454e-35
-3.78867e-32
4.67201e-38
-9.74878e-33
-9.42845e-36
-8.5975e-33
-9.38684e-36
-9.89512e-33
-2.49464e-33
-1.00723e-32
-2.28913e-36
2.91487e-39
-2.76788e-33
3.12631e-39
-6.81281e-37
-2.80126e-33
5.3388e-39
1.28101e-39
-6.67833e-34
-1.8097e-34
-7.26132e-37
-2.36408e-42
-2.00088e-42
-4.97347e-38
-5.40514e-35
-1.33498e-35
1.11793e-40
2.41361e-39
-2.1144e-34
-5.3772e-35
1.0149e-38
-2.22208e-34
-1.76161e-37
-8.89569e-34
3.34388e-38
-3.78877e-33
-9.61522e-34
3.35731e-38
-3.90611e-36
-3.9797e-36
2.96878e-40
2.55003e-41
-3.93485e-36
-4.78273e-33
-1.58732e-35
-4.63669e-33
-1.71191e-35
-1.79822e-32
1.15202e-38
-1.85848e-32
1.21801e-36
1.33916e-36
-1.95131e-32
1.44119e-36
-1.74396e-35
-2.17114e-32
4.025e-40
-2.10203e-32
1.31633e-35
-8.90731e-32
-2.18831e-35
-9.11505e-32
-9.20695e-32
-2.02879e-31
-2.19073e-32
-9.17268e-32
9.01722e-36
-9.28676e-32
-2.31731e-32
6.91215e-37
-7.63308e-38
-2.00465e-36
-2.23818e-32
-2.22019e-32
-5.38482e-33
8.56068e-38
-6.45327e-43
1.52088e-36
-7.80208e-32
3.82167e-36
-1.7758e-32
2.05271e-36
-6.51812e-32
-6.25766e-32
6.91747e-37
-2.82861e-36
-5.55558e-32
7.84696e-37
8.44477e-39
2.91381e-37
-5.06285e-32
1.15435e-37
-1.94533e-31
-4.7914e-32
-4.64466e-35
-4.57131e-35
2.90426e-38
-1.15212e-32
-1.14381e-32
-1.14041e-32
-4.55648e-32
2.54101e-37
-1.13908e-32
1.00217e-37
-1.14503e-32
-1.07802e-32
-1.3069e-32
-2.57701e-35
-2.75582e-33
-2.95883e-33
-2.98772e-33
-3.04545e-36
-2.86374e-33
-3.08987e-33
-7.80326e-34
2.83816e-41
-8.03015e-34
-7.77457e-37
-3.24505e-36
-8.88414e-34
-2.25289e-34
-1.96682e-37
-2.10767e-34
-5.86754e-35
-1.35332e-35
2.01872e-40
-2.28919e-39
-6.17624e-35
-4.18044e-38
-2.52944e-34
-2.25458e-34
-8.88193e-37
-9.83097e-34
-9.30473e-34
-1.00251e-33
2.72052e-38
2.27501e-37
-3.86454e-33
-3.65311e-33
-4.18209e-36
-4.22887e-33
-2.54067e-37
-3.87912e-32
-1.68009e-36
-1.59686e-35
-1.77664e-32
-1.68979e-32
-1.70972e-32
-1.74497e-35
-1.84419e-35
1.64961e-36
-1.91406e-32
-7.43775e-35
1.27151e-36
-1.74801e-32
1.68737e-36
-7.66177e-32
-7.76485e-32
-3.35405e-31
-8.50483e-32
-8.33763e-32
-2.50921e-35
-8.82817e-32
2.18029e-35
-8.90183e-32
-9.01715e-32
1.81346e-36
-1.09021e-36
4.29164e-36
-9.46961e-32
-2.39528e-32
-2.33995e-32
-2.30845e-32
-2.25477e-32
5.62243e-37
-2.03098e-35
4.83824e-37
-1.92345e-32
-7.31305e-32
-7.0759e-32
1.04592e-35
-2.61442e-31
-6.28089e-32
9.3154e-37
6.8304e-37
-5.78324e-32
3.88013e-37
1.7013e-40
-1.28145e-35
-5.14597e-32
-5.11062e-35
-4.83754e-32
1.60274e-36
-5.04835e-32
2.94048e-37
7.90272e-39
-4.82045e-35
-1.56425e-32
-1.23213e-32
-1.08161e-32
4.55605e-38
-1.2508e-35
-1.39144e-32
-1.18914e-35
-1.24163e-32
-1.24585e-32
-1.2242e-35
-2.79347e-35
-3.0532e-36
-3.31855e-36
-3.03069e-33
-3.26134e-33
8.41166e-38
-3.32064e-33
2.22166e-38
1.96062e-41
-8.10328e-37
-8.31903e-37
-8.71869e-34
2.46429e-38
-2.07968e-34
-2.38432e-34
-5.01859e-38
-1.60571e-35
-5.57686e-38
1.39223e-39
-5.46499e-35
-5.5381e-38
-2.50281e-34
-9.48959e-34
2.98452e-38
2.52586e-38
-9.64761e-34
-3.7467e-33
-4.27645e-37
-3.65578e-33
-3.92174e-33
9.91678e-39
-3.94615e-33
-3.72208e-33
-3.96993e-33
-1.55286e-32
-1.47576e-35
-1.08103e-35
-6.52126e-32
7.61288e-37
-1.6586e-32
-1.03668e-35
-1.90113e-32
-1.54224e-35
-6.86856e-32
6.05138e-36
-6.86424e-35
-2.76901e-34
-6.55186e-35
-6.83043e-32
-7.84781e-32
-7.95454e-32
-8.32179e-32
3.15563e-35
-3.18238e-31
-3.26184e-35
-7.84572e-32
1.78783e-35
-8.32613e-32
-3.39152e-31
3.88352e-35
-8.70281e-32
-8.77859e-32
-2.21419e-32
2.42061e-38
-1.07509e-37
-5.40287e-33
1.78321e-37
-1.68806e-34
1.95428e-37
-1.78836e-32
-1.752e-32
1.34763e-36
3.53965e-36
-2.5006e-31
7.37661e-36
-5.59549e-37
-1.34308e-37
-5.69942e-32
-5.59596e-32
-1.16915e-35
-1.35928e-35
-5.34047e-32
-5.11423e-35
-5.04613e-35
3.50715e-37
-4.83219e-32
-5.01085e-35
-5.09952e-32
-4.93804e-35
-4.92835e-35
4.18822e-40
8.33567e-40
2.15109e-37
-5.04018e-32
-1.26267e-32
4.92519e-38
-1.23839e-35
-1.35301e-32
6.08835e-38
-1.20923e-42
1.51612e-37
-2.97508e-32
-3.46458e-33
-1.44055e-40
-3.09233e-33
-3.74255e-33
-3.25211e-36
-3.35208e-33
-3.36931e-33
-7.97657e-37
6.22016e-41
-8.03282e-37
-8.87016e-34
-2.35959e-34
-5.19042e-38
-5.42444e-35
-5.04195e-38
-1.53759e-35
-5.13038e-35
1.24436e-38
-8.75336e-34
-8.21514e-34
2.453e-38
-8.53711e-37
-2.69393e-37
-1.41778e-32
-3.47985e-33
-1.39178e-32
8.35515e-37
-3.63158e-36
-1.41216e-35
-1.31675e-35
-1.3463e-32
4.5171e-37
-1.41274e-35
-1.18789e-35
-1.3173e-32
-1.28126e-35
5.03435e-36
-5.66343e-32
-1.612e-32
-5.74018e-32
-5.43865e-32
-5.83791e-32
4.54787e-36
-5.95093e-35
5.01932e-36
-6.51533e-32
-6.21469e-32
-5.92294e-32
-5.86702e-35
9.49292e-39
-1.67393e-35
-1.25672e-35
-7.04516e-32
-7.20127e-32
-7.24324e-32
-2.94829e-31
1.46139e-35
5.30934e-36
-7.92202e-32
-9.51551e-37
-6.9019e-37
7.75714e-39
1.25339e-39
4.76038e-39
-6.68918e-35
-1.69824e-32
-1.66075e-32
-6.38227e-37
-6.18719e-32
-9.07396e-37
-5.89909e-32
-5.77492e-32
-5.64019e-32
8.13194e-39
-5.47628e-32
3.97591e-36
-5.16371e-32
-5.6129e-32
-1.34191e-35
9.98568e-38
2.59241e-38
3.63559e-37
-5.07446e-32
1.44772e-36
-5.34426e-32
-4.81435e-35
-4.9912e-32
2.86103e-37
1.21204e-39
-4.75761e-35
-1.88864e-31
-1.12497e-35
-1.20341e-35
-1.31484e-32
-1.19322e-35
-1.16295e-32
2.46597e-37
-1.24331e-32
-1.24684e-32
6.94444e-38
-3.06166e-36
-3.01084e-36
-3.17233e-36
-1.23027e-35
-3.1621e-36
-3.05466e-33
-6.92631e-37
-8.37723e-34
-8.36801e-34
-1.84239e-34
-2.22012e-34
-1.90613e-37
-4.89501e-35
-1.88456e-37
-1.0669e-35
-4.06212e-38
-1.80619e-34
-1.92277e-34
-7.86892e-34
2.4119e-38
2.98085e-42
4.74754e-37
-1.19121e-32
-2.95556e-33
-1.21215e-32
-3.07248e-36
-1.15861e-32
-2.70729e-33
-1.35968e-36
-1.14204e-32
-1.11923e-35
-1.20901e-32
-1.13719e-32
-1.13476e-32
6.43216e-37
-6.43568e-36
-4.44485e-32
1.18501e-38
-4.35075e-32
-1.72146e-34
-5.00591e-32
-4.6411e-35
-5.42649e-32
3.70508e-36
-4.67005e-35
-5.13736e-35
4.76398e-38
-5.09281e-35
-9.76704e-36
-5.2943e-32
-1.3686e-35
-5.74634e-32
-2.39732e-31
-2.42486e-31
7.93804e-36
2.07933e-36
-6.59543e-32
-6.7957e-32
-6.88101e-32
-7.07848e-32
-1.77843e-32
-1.77419e-32
5.89598e-37
-5.89412e-35
-6.05512e-32
-5.94732e-32
-5.78101e-32
-5.68689e-32
1.18153e-36
4.27428e-36
-2.12705e-31
-5.30286e-32
3.15517e-36
-5.14217e-32
9.58793e-39
-4.91525e-32
-5.14918e-32
9.08742e-37
-1.90934e-31
-5.2039e-32
-4.59439e-35
-4.84171e-32
-4.75341e-35
-4.6773e-35
-4.47635e-32
-5.36147e-32
-4.50885e-35
-4.70846e-32
2.48672e-37
8.30509e-39
-1.13862e-35
4.78168e-37
-1.04252e-31
-1.01545e-32
-4.90572e-32
-1.07757e-35
-1.14887e-32
5.46068e-38
-1.1241e-41
-1.04637e-40
-2.76486e-36
-2.83535e-33
-2.7582e-36
-2.81779e-33
1.15645e-38
8.62294e-39
-7.38314e-34
-2.76243e-33
-1.30471e-37
-1.51688e-37
2.0584e-42
-9.49004e-39
-1.73835e-39
-3.80127e-35
-3.19207e-38
-1.6165e-34
8.54481e-39
-6.73215e-34
-5.9005e-37
-6.03909e-37
-5.27682e-36
-2.57561e-33
-2.38928e-33
-9.74412e-33
-9.02954e-33
-9.27554e-33
1.05516e-38
-9.06291e-33
-6.23192e-36
-3.44612e-35
-8.38714e-33
2.66926e-36
-8.88718e-33
2.3291e-37
-3.5423e-32
-2.96602e-35
1.82139e-36
-3.35192e-32
1.89471e-36
2.25475e-38
2.73243e-39
-3.97611e-35
8.35195e-39
-3.56127e-35
-3.94259e-32
-3.78225e-32
-3.63105e-35
-1.69684e-31
-1.88766e-36
-8.66117e-36
-4.65346e-32
-4.81294e-32
-4.9712e-32
-5.17321e-32
-5.36057e-32
-5.50111e-32
-5.78808e-32
-5.90202e-32
-2.42207e-31
-1.53192e-32
7.6604e-37
1.58123e-39
-5.20873e-35
-1.32994e-32
-5.25773e-32
-2.08028e-31
-5.08329e-32
1.02483e-36
6.06195e-37
-4.92681e-32
-1.93673e-31
3.15087e-36
6.60128e-38
2.21293e-36
-1.86667e-31
1.95159e-37
-1.78098e-31
-1.70748e-31
-4.23469e-32
2.17348e-36
-1.84796e-31
-4.45777e-32
-4.69913e-32
-4.6701e-32
-4.31892e-35
-4.21399e-35
-4.30376e-32
2.14663e-37
-4.16038e-35
1.47046e-39
-1.00237e-35
-4.3012e-32
-9.3232e-32
-4.11833e-32
-1.02296e-32
4.18794e-38
-9.73718e-36
-1.06636e-32
-9.6481e-33
-2.15407e-36
-9.50332e-33
-2.30052e-36
-2.32665e-36
-2.69192e-33
-2.30317e-36
-2.33679e-33
-5.7873e-34
5.12563e-41
-5.6309e-34
7.84685e-39
5.16686e-45
6.61547e-40
-3.3287e-35
-1.30988e-34
-1.15659e-37
-1.24035e-37
-4.36046e-37
-4.76994e-37
5.29348e-42
6.71348e-42
4.60311e-39
-1.43504e-36
-1.70773e-33
-7.36573e-33
-7.22997e-33
8.85074e-37
-6.88269e-33
-2.71963e-32
1.113e-36
4.87478e-37
-6.65918e-33
-1.02343e-36
-2.56188e-32
-6.19985e-38
1.47113e-39
-2.59329e-35
-1.11023e-34
-2.6374e-35
1.27485e-39
1.40793e-36
-2.80997e-32
1.38598e-36
1.84619e-39
-2.81394e-35
-2.56801e-35
-1.27444e-31
5.88934e-36
6.09092e-36
-1.44088e-31
1.6339e-35
-1.53873e-31
4.47738e-36
-2.95923e-36
-4.38743e-32
-4.10923e-31
-4.81617e-32
-5.00466e-32
-5.15351e-32
-5.29361e-32
7.79419e-37
1.34807e-39
-4.58959e-35
4.88218e-39
2.08853e-36
-1.83363e-31
8.48511e-36
-6.80293e-37
-1.0394e-36
-1.74527e-31
-1.73896e-31
2.771e-36
7.39785e-42
0
1.67315e-37
8.18919e-38
4.38545e-36
-1.65052e-31
-1.58745e-31
-1.67022e-31
-1.60415e-31
-3.58776e-31
-3.95732e-32
2.5993e-38
-3.78139e-35
-3.73295e-35
-3.79749e-32
7.29254e-37
-3.71873e-32
-3.67947e-32
-3.64132e-32
1.6633e-37
3.55258e-37
-7.93435e-32
-8.72985e-33
6.81029e-40
-8.51904e-33
-8.42624e-33
-7.81596e-33
-7.82103e-36
-7.86313e-33
3.3682e-39
-2.22208e-33
-1.94229e-33
-4.64892e-37
-1.82023e-33
1.35666e-38
-1.09064e-37
-4.59443e-34
5.74214e-39
2.77308e-44
-1.1223e-39
-2.69386e-35
-1.03932e-34
1.9586e-39
-3.46022e-37
-3.76443e-34
-3.51206e-37
1.01546e-39
1.37255e-39
6.36518e-38
-1.35611e-33
1.76538e-38
-4.90262e-33
-4.82685e-33
-5.03975e-33
7.15399e-38
-3.16432e-36
-5.39534e-36
-4.71703e-36
-1.845e-35
-2.08443e-32
7.08999e-38
-7.36039e-32
-1.54834e-35
-1.78412e-35
-1.93128e-32
-1.97401e-35
2.51601e-38
-1.62098e-35
-8.26761e-32
3.66722e-36
-1.93475e-35
-2.18144e-35
-2.1135e-35
-9.34231e-32
-1.0014e-31
4.05147e-36
-4.38782e-31
3.09937e-35
-1.22849e-31
-1.27392e-31
-1.34108e-31
3.85949e-38
-1.48459e-31
2.14369e-37
-4.06602e-32
-1.53542e-36
-6.1882e-37
-4.57396e-32
1.22214e-36
-3.87025e-35
-1.01328e-32
-7.5048e-38
-3.95535e-32
-1.58259e-31
1.56153e-35
-1.55676e-31
-1.54979e-31
-1.54101e-31
1.06435e-37
-9.25605e-36
6.39513e-41
-4.16904e-35
-1.42846e-31
-1.50075e-31
-1.52802e-31
-5.88784e-31
-3.92097e-35
-1.23048e-34
-5.51887e-31
-1.27878e-31
-1.34842e-31
-3.15662e-35
-1.27749e-34
-3.0258e-32
1.37273e-37
-3.04971e-35
-3.27902e-32
-3.22935e-32
1.1685e-39
-2.67499e-32
-2.80863e-32
-2.85064e-32
-2.80416e-32
-2.75839e-32
1.56845e-38
-6.65046e-33
1.50011e-37
-6.40209e-33
-6.27433e-33
-1.63758e-33
-1.44745e-36
1.46161e-38
-1.48717e-33
-3.40708e-37
-3.44019e-34
-6.92394e-38
-7.97878e-38
6.95457e-43
6.35246e-44
3.19463e-41
-6.77767e-38
-6.03786e-38
-2.61449e-34
-2.89275e-34
-2.58968e-37
-9.96043e-34
-1.00298e-33
-9.79546e-34
-6.43623e-37
1.11667e-37
-3.76381e-33
3.77046e-37
-3.3075e-33
-2.48097e-36
-1.35775e-32
-1.33934e-32
4.3231e-37
6.78394e-37
-1.23565e-32
-1.22904e-32
-1.64695e-35
-1.2785e-35
1.9943e-39
-1.32248e-35
-1.44647e-32
-5.55461e-32
1.9055e-36
-6.1624e-35
-2.33512e-34
-5.84198e-32
1.39489e-39
-6.54482e-32
-7.2775e-32
-1.40581e-35
-1.74175e-35
-8.16761e-32
5.80941e-36
-9.32684e-32
-3.96842e-31
-1.05838e-31
3.1769e-36
-1.1517e-36
2.88476e-36
-1.36304e-31
8.19024e-36
-3.76979e-32
-9.62926e-33
2.56926e-37
6.59532e-37
-3.43869e-32
-3.39242e-32
-3.39611e-32
4.8284e-36
-1.35711e-31
-1.32955e-31
-1.31881e-31
-1.32977e-31
-8.42145e-38
-6.90159e-41
9.85966e-38
-1.31507e-31
-1.21539e-31
2.49566e-36
-2.28275e-35
-4.89055e-31
-1.18725e-31
-1.24714e-31
-1.07921e-31
2.17162e-37
-4.46402e-31
-2.4283e-35
4.20172e-40
-2.5342e-35
1.06104e-37
-2.37602e-32
-2.41306e-35
-2.3567e-35
-2.53093e-32
9.83126e-38
1.06026e-37
-2.3011e-32
-8.8586e-32
-5.33335e-33
-5.206e-33
-5.0881e-33
-4.80086e-36
-5.30311e-33
-1.91367e-32
-1.11269e-36
-1.04535e-33
-1.03326e-36
-1.08896e-33
-1.05377e-33
6.22843e-39
8.91471e-41
-1.42004e-38
-1.37351e-38
-8.32838e-38
-1.36722e-35
-1.06623e-38
-1.98087e-34
-1.92479e-34
5.99195e-39
-7.64729e-34
-7.44304e-34
1.79835e-38
-6.54667e-34
-2.54596e-33
1.51625e-37
-2.41708e-33
-2.35938e-33
-2.15762e-33
-2.42139e-33
-2.39226e-33
-8.56695e-33
-6.24298e-41
-8.07107e-33
-8.86988e-36
8.98379e-38
-8.08856e-33
1.06694e-37
-7.47848e-36
-3.56207e-32
-9.14895e-33
-3.52995e-32
-3.40722e-35
-3.12153e-38
1.27773e-36
-4.3338e-32
-4.30222e-35
-5.3616e-35
-5.04854e-32
6.40051e-36
-5.88117e-32
-1.4524e-35
-4.28869e-36
-1.41623e-35
-7.7393e-32
-8.2158e-32
1.34706e-36
5.39139e-41
-1.55878e-36
-8.4206e-36
9.9295e-37
-3.05556e-32
2.18948e-37
2.75887e-42
-2.66639e-35
-2.84352e-32
-2.85371e-32
-2.94708e-32
-2.28745e-36
2.08815e-36
5.56886e-38
6.42254e-36
-4.38619e-31
5.81693e-36
-5.38021e-36
-1.08765e-31
-1.0842e-31
-1.00477e-31
-2.36702e-35
-2.19757e-34
-8.60745e-32
-9.69541e-32
-9.46498e-32
-9.51959e-35
1.89522e-36
-3.55092e-31
-8.26724e-35
-1.86173e-34
-2.02069e-35
-1.95945e-35
-2.08307e-32
-2.03182e-32
-1.81186e-35
-7.24151e-32
-1.87271e-32
-1.65898e-35
-3.93389e-36
-1.6191e-32
1.93528e-38
-3.58052e-33
-3.41154e-36
-3.58294e-33
1.71171e-37
-1.40947e-32
-3.35368e-33
-3.1404e-33
-7.57861e-34
3.8725e-38
-2.82617e-33
1.11324e-38
-1.63737e-34
-3.72135e-38
-3.87535e-38
-3.57577e-38
1.82986e-42
1.90823e-39
-1.38565e-34
-1.09094e-37
-4.6522e-34
-4.79262e-34
1.57879e-38
-4.28142e-34
1.559e-38
-1.51482e-33
-1.65867e-33
-6.05673e-33
-1.47861e-33
-1.44425e-33
-1.40252e-33
6.55298e-39
-5.9441e-36
-2.04733e-35
-2.20345e-32
4.92158e-37
-5.22117e-36
5.30042e-38
-5.74583e-33
1.39327e-37
-2.25893e-32
-1.87742e-35
-2.37646e-32
-2.63785e-32
-2.76302e-32
-2.3859e-35
-2.27101e-38
3.14948e-36
-1.29251e-31
3.09015e-36
9.2842e-37
-4.02751e-32
-4.35229e-32
-4.73508e-32
1.2426e-36
8.70764e-37
-6.15644e-32
-6.72842e-32
1.65313e-36
1.73561e-36
-8.69919e-32
-9.4183e-32
2.89044e-36
-6.58515e-33
1.19769e-37
-5.34403e-36
-5.75402e-33
1.47697e-36
-9.42513e-32
-9.31638e-32
-9.2315e-32
5.10727e-36
-9.09986e-32
6.48371e-37
-8.94811e-32
-4.18068e-36
-2.46688e-36
9.47259e-37
-8.54313e-32
-1.91828e-35
6.05535e-40
-6.30744e-35
-7.06906e-32
-6.62115e-35
-6.68917e-35
-6.54528e-35
-5.91256e-35
-6.43547e-35
-6.26408e-35
-1.5076e-35
-5.82538e-35
-5.62382e-32
-1.40233e-32
-1.0108e-40
-1.31143e-32
-1.26768e-32
-1.22406e-32
3.90476e-38
3.97079e-40
3.49028e-43
2.13653e-38
-2.54824e-33
-2.45642e-33
-2.51087e-33
-2.34377e-33
-2.04365e-33
-4.60582e-33
-5.01651e-34
1.17431e-38
-4.46425e-34
5.36049e-40
-1.15275e-34
-2.42255e-38
-2.39283e-35
4.58146e-41
-5.45183e-36
3.03668e-40
-6.92731e-38
-7.15922e-35
-2.91642e-34
7.10511e-39
-2.43306e-37
-1.08224e-33
-9.50005e-34
1.07532e-38
4.75503e-38
-8.81825e-34
-1.40787e-40
9.56691e-40
8.35106e-39
-3.09611e-36
-3.02378e-36
-3.20816e-36
-3.07659e-33
-1.12889e-35
-3.56812e-36
1.37917e-37
-3.16731e-33
6.0547e-38
-9.37798e-39
3.06057e-37
-1.52481e-32
-1.50564e-32
-1.5754e-32
-1.47592e-32
-1.84508e-35
4.41389e-37
-2.09608e-32
-2.26721e-32
-2.46634e-32
2.24893e-36
-2.89734e-32
-3.20091e-32
-1.80107e-36
-5.06137e-36
-4.50406e-32
-4.96447e-32
4.12548e-37
1.22475e-37
-1.87032e-37
-7.33076e-32
-1.98406e-32
-5.26395e-33
9.52599e-38
-4.34708e-36
1.44352e-38
1.02272e-36
-7.53775e-32
-7.40583e-32
-7.35478e-32
3.80353e-36
-7.15207e-32
-2.83253e-31
-2.78378e-31
-9.25588e-36
-6.11052e-36
-6.55395e-32
-6.12078e-32
-5.53107e-37
-6.35823e-35
-5.4845e-32
-5.49713e-35
-2.13715e-34
-5.64457e-32
-5.14019e-32
-4.94806e-32
-4.61959e-35
-4.37536e-35
-4.30468e-35
-4.13414e-35
-3.94622e-32
-9.29049e-36
-3.7544e-32
1.09065e-37
2.78318e-38
-8.2677e-33
2.4821e-38
-7.40553e-36
-7.05497e-36
-6.93629e-33
-1.55553e-33
-8.29938e-41
-1.60337e-33
-1.43667e-33
-1.40979e-33
-1.34509e-33
-2.85545e-37
-2.8578e-37
-6.9098e-38
-2.57834e-37
-6.48213e-38
-1.60265e-38
-1.34192e-35
-3.24113e-39
-2.8671e-36
-4.60765e-35
-4.23392e-38
-4.48952e-35
-1.73169e-37
-1.48642e-37
-1.14878e-37
-2.24371e-33
9.55081e-38
-5.01879e-34
-4.494e-34
-4.91646e-34
5.54167e-39
-3.9729e-37
-1.62012e-33
2.18516e-38
2.28837e-38
-1.48152e-33
-1.72586e-36
-1.46804e-33
-6.50887e-33
-6.38724e-33
-6.51593e-33
-6.52154e-36
-6.85032e-36
-7.22552e-36
2.23202e-39
-3.38172e-35
-9.48854e-33
-9.65459e-33
-1.10423e-32
1.99578e-37
-1.72616e-38
-1.07085e-35
-6.19233e-32
-1.72924e-32
-1.94615e-32
-5.59721e-36
-2.35125e-32
-2.73646e-32
-1.25276e-31
1.09641e-36
-3.96662e-32
-4.46573e-32
-5.04692e-32
1.69049e-37
-6.0899e-32
1.34618e-36
6.5826e-41
8.84219e-42
1.42463e-38
-8.1608e-38
-5.83932e-32
-2.28886e-31
-5.64874e-32
5.34342e-37
3.45773e-37
-2.56904e-36
-5.18799e-32
-2.06459e-31
-4.82395e-32
-4.96112e-32
-4.76111e-32
-1.80859e-31
-4.3559e-32
-4.46339e-32
-4.54364e-32
-4.00229e-35
-3.72244e-32
-1.38169e-31
-3.42644e-35
-3.08399e-35
-3.32141e-32
1.37057e-37
-3.06299e-40
-6.82694e-36
-2.64866e-32
-2.44004e-32
6.38897e-38
3.09943e-44
6.97131e-41
1.31169e-41
-4.60807e-36
-4.34903e-36
-4.23605e-33
-9.8641e-37
-9.19093e-37
-8.93172e-34