/*--------------------------------*- C++ -*----------------------------------*\
| =========                 |                                                 |
| \\      /  F ield         | OpenFOAM: The Open Source CFD Toolbox           |
|  \\    /   O peration     | Version:  2006                                  |
|   \\  /    A nd           | Website:  www.openfoam.com                      |
|    \\/     M anipulation  |                                                 |
\*---------------------------------------------------------------------------*/
FoamFile
{
    version     2.0;
    format      ascii;
    class       volScalarField;
    location    "20000";
    object      I2_26;
}
// * * * * * * * * * * * * * * * * * * * * * * * * * * * * * * * * * * * * * //

dimensions      [0 0 0 0 0 0 0];


internalField   nonuniform List<scalar> 
14751
(
1.833e-62
6.00527e-53
-7.09796e-50
-2.68873e-49
-6.28226e-50
-1.61238e-52
-1.29854e-51
-1.54265e-50
-6.35279e-52
-6.228e-55
-5.57323e-52
-2.51752e-54
-2.70005e-52
-8.30297e-54
-4.00243e-50
1.18633e-53
-7.33973e-51
-3.0746e-53
-2.05671e-54
-7.94978e-54
-9.35126e-53
-9.29608e-55
-1.13479e-53
-8.97456e-54
-7.06444e-53
-3.66611e-53
3.27504e-57
-1.19005e-54
-4.96495e-53
-2.0692e-54
-2.16865e-53
-9.93694e-54
-5.40442e-57
-7.09393e-54
-4.01167e-55
-2.11898e-54
-5.81057e-55
6.92351e-59
1.9061e-58
2.26656e-60
1.28716e-54
-6.46762e-51
7.04037e-55
-3.87719e-52
9.94483e-56
1.51883e-55
-3.72149e-52
1.32125e-55
2.24057e-63
1.7346e-55
-3.63841e-52
1.71533e-55
-1.62062e-56
-1.83989e-56
-8.51756e-56
-8.13332e-56
2.18916e-55
-3.88317e-52
-4.07401e-52
-6.86451e-51
4.81401e-54
3.02433e-53
-2.98924e-50
1.70592e-53
-5.14054e-54
2.77678e-54
-2.36815e-51
6.45754e-54
-6.29125e-52
-5.10437e-52
-7.05719e-52
4.60979e-55
-5.02006e-53
-1.31866e-52
-7.71384e-52
-1.11095e-53
-7.5558e-53
-8.07247e-53
4.15354e-54
-5.3839e-51
-6.96675e-51
-5.09852e-51
-2.11486e-53
1.0733e-53
-7.68115e-51
-1.16093e-50
-8.69627e-51
1.00055e-53
0
5.52639e-53
-4.31621e-50
-1.04379e-53
-2.39381e-52
-1.19761e-53
-9.66102e-54
-1.30677e-53
-3.95752e-51
3.04388e-54
9.41584e-58
3.49501e-46
-7.93225e-45
3.92334e-46
-5.82634e-47
1.32693e-47
3.79529e-45
-1.1262e-43
1.32247e-44
-1.02291e-43
1.55983e-47
-9.27136e-44
7.96428e-45
-8.00777e-44
1.78389e-45
-5.96808e-46
5.74314e-47
-5.41713e-46
8.34331e-47
-9.78466e-45
3.72543e-48
1.32811e-46
-9.36257e-45
-1.06549e-44
-1.17512e-44
2.86941e-47
9.58892e-49
4.63969e-47
-6.19775e-45
3.74389e-47
-1.39382e-47
-1.23203e-47
7.08875e-48
-9.50168e-46
-1.01078e-45
-2.72655e-48
-9.23945e-46
-9.96998e-46
1.18463e-47
-2.40863e-48
-5.56506e-49
1.2018e-50
-3.01085e-50
1.03191e-51
-4.11177e-50
1.47198e-48
-5.80459e-47
-7.15268e-48
-1.15643e-47
3.3899e-49
2.399e-50
-6.02316e-49
5.57349e-50
-1.42531e-49
8.89868e-50
-5.81007e-49
-9.66543e-50
2.8517e-50
-5.55715e-50
4.80378e-49
-6.99106e-48
6.20222e-49
1.16768e-46
-1.33472e-45
-7.48683e-46
-1.15425e-45
1.40132e-46
-1.29064e-47
-1.23897e-47
1.19257e-46
-1.65096e-45
2.33712e-46
6.79839e-46
-6.13394e-45
-7.57455e-45
7.78114e-46
1.1197e-45
-8.59762e-45
-8.68719e-45
7.27014e-46
7.67391e-46
-1.21142e-44
8.25755e-46
-1.1879e-46
-6.23106e-46
7.32464e-45
-6.64981e-44
5.89179e-45
-4.56489e-47
1.39772e-47
-1.33885e-47
6.55163e-45
-9.5863e-44
7.02774e-45
-5.72301e-47
1.73604e-45
-2.78566e-44
1.69446e-45
-1.0535e-48
9.83981e-50
1.64521e-43
-9.34242e-44
1.64104e-43
8.98303e-42
4.93475e-43
-6.11966e-42
6.59468e-42
7.58686e-42
3.15262e-42
-3.83198e-42
2.84686e-42
7.58229e-46
-2.49048e-42
5.16619e-43
-8.32786e-42
2.91336e-42
1.14574e-44
1.36642e-43
-2.65428e-43
2.59253e-44
9.64735e-44
-1.30909e-43
1.18198e-42
-3.40608e-42
-6.46669e-43
-3.92998e-44
-1.78244e-42
3.61667e-44
3.4722e-44
2.28065e-43
-7.11191e-43
-6.14945e-43
-1.51357e-43
-1.50458e-44
6.36902e-44
-1.2768e-44
-1.26438e-44
-1.72553e-43
7.44717e-44
1.99898e-46
2.12406e-47
-1.33526e-45
2.01498e-44
2.62991e-45
1.54176e-44
2.79668e-44
3.99247e-45
-2.27295e-46
4.71691e-46
9.71742e-46
-5.69365e-46
7.38439e-46
1.63294e-44
-5.13802e-45
2.81359e-44
-2.62228e-44
1.01812e-43
1.31372e-45
1.82037e-45
2.75435e-45
5.0327e-43
-1.08732e-45
1.28965e-42
6.71794e-43
1.11084e-44
1.60606e-42
-2.44006e-43
3.5959e-42
4.33127e-42
2.28493e-42
1.72907e-41
7.91349e-43
4.68515e-43
-3.35718e-44
9.74328e-43
1.67825e-42
8.60014e-42
7.96055e-43
1.21759e-41
6.52884e-43
2.20967e-41
6.2664e-42
1.55574e-41
1.92871e-41
4.21055e-42
-1.02432e-42
5.86901e-42
-1.9985e-44
1.03031e-43
2.04567e-41
3.02511e-43
6.46392e-41
3.13203e-41
1.18871e-41
2.09236e-41
3.09919e-42
-2.41249e-43
3.18061e-42
2.13484e-50
2.85012e-45
6.19421e-40
-8.49377e-39
-1.01387e-38
-1.03164e-38
-1.05674e-38
-4.01857e-38
-4.68794e-38
-4.71403e-38
-1.28284e-38
-1.30457e-38
4.65455e-40
2.91497e-43
3.56972e-40
-1.40797e-38
3.5661e-40
9.29392e-40
-4.84777e-38
-3.90021e-38
-5.30094e-38
5.38278e-40
-2.46539e-40
-4.67017e-38
-7.41836e-39
-1.99069e-39
8.46257e-41
-2.41714e-38
2.25186e-40
-4.62425e-41
2.37833e-40
-2.22327e-38
-2.33816e-38
-1.56242e-39
-4.22866e-40
3.02155e-42
-2.22692e-39
-2.23032e-39
-3.84403e-40
7.45103e-42
-2.01162e-39
4.57157e-41
1.13255e-41
-5.07328e-40
-1.07975e-40
5.51277e-42
-4.98027e-43
-1.16977e-42
-7.18127e-44
3.42265e-45
1.55645e-43
5.27224e-43
-2.91623e-41
1.08984e-41
-2.9173e-41
4.47222e-42
-1.30853e-40
5.17641e-42
5.82851e-41
-2.81099e-40
-1.62819e-39
7.67656e-41
-3.56279e-40
2.75984e-40
-1.0063e-41
-2.12845e-39
-4.85127e-40
-1.78648e-39
3.72113e-39
-6.15674e-39
-1.74901e-39
1.01193e-40
-1.55313e-39
5.06924e-40
8.79346e-44
5.69203e-45
5.44474e-45
2.92324e-39
-1.11416e-38
2.66841e-39
7.27544e-39
-3.19571e-38
3.59022e-38
-6.90985e-38
1.47761e-38
-3.3725e-41
5.48166e-39
-2.91878e-38
5.13974e-39
6.18758e-39
-3.0973e-38
-3.33039e-39
5.39976e-39
-7.59499e-39
6.76135e-40
-2.81784e-38
-6.31113e-39
-1.90022e-39
-1.85694e-39
1.99371e-40
5.71391e-43
5.67399e-39
-1.16796e-37
-1.23377e-37
4.58091e-38
-4.07964e-37
-5.46957e-36
-5.36282e-37
-6.8018e-37
-7.10463e-37
-7.20058e-37
1.78932e-38
4.84897e-38
-3.41244e-36
6.35117e-38
-3.02584e-39
-3.8969e-39
-1.01019e-36
-9.02141e-37
5.56132e-39
-1.8904e-44
2.84045e-38
-3.84143e-36
2.65716e-38
-4.18565e-39
-1.66333e-39
-2.40448e-37
-7.80105e-39
8.51516e-39
-1.07196e-36
-1.05806e-36
8.36955e-39
-8.06294e-40
4.82357e-42
5.25394e-40
-6.06112e-38
-5.74356e-38
-5.88228e-38
7.87069e-40
-2.18019e-37
3.11355e-40
-5.63424e-38
-1.2977e-38
6.40199e-40
-3.98273e-39
-1.16584e-38
-2.93522e-39
-3.50898e-39
1.16349e-40
2.43528e-41
-6.13241e-40
-7.82128e-40
-2.80807e-39
1.39917e-40
7.17391e-40
-7.50557e-39
-3.7476e-38
-3.58464e-38
-1.00407e-38
-3.41136e-38
-2.94506e-38
3.44203e-39
2.0222e-38
-1.48608e-37
-2.56063e-38
4.33231e-39
2.21022e-38
-1.07366e-37
-1.04561e-37
2.26038e-38
-4.45694e-37
1.03152e-37
-6.75715e-39
-3.6032e-40
3.03994e-40
7.29496e-38
-3.52166e-37
2.70296e-37
-3.20225e-37
-2.26291e-39
-3.75516e-37
-1.03709e-37
-3.72265e-37
6.8968e-38
-3.47465e-44
6.27188e-38
-1.84137e-37
-1.46092e-36
5.02235e-37
-4.11802e-37
4.3075e-37
-1.56413e-36
1.73693e-37
1.47164e-37
-1.68893e-36
-7.89029e-38
-4.20609e-37
1.54848e-39
1.7564e-39
1.31486e-38
-8.15328e-38
1.37193e-38
4.48238e-38
-1.11273e-37
-4.90074e-36
-1.48123e-36
-3.07615e-36
1.85597e-37
-1.04276e-40
-3.2779e-40
9.85533e-38
-6.0551e-36
-6.13493e-36
1.36195e-37
-9.97286e-39
8.6063e-38
-9.62382e-36
-1.13655e-35
-2.30068e-35
1.84119e-37
5.92158e-40
-2.37587e-36
9.21139e-39
-6.08746e-39
1.79624e-38
-2.86457e-36
-2.17028e-36
-2.75379e-36
-2.33634e-36
-5.86745e-37
-5.99931e-37
-2.21263e-36
1.23163e-38
1.4999e-41
-8.33858e-42
-4.79023e-42
5.32161e-39
-5.14135e-37
-1.23113e-37
-4.86056e-37
6.78395e-39
2.35958e-42
-1.01345e-40
6.27636e-40
-2.55103e-38
-3.32494e-39
-2.36019e-38
-6.8553e-40
2.19677e-40
-1.30314e-39
6.06507e-41
-4.71876e-39
2.56927e-40
1.26327e-38
-1.38491e-37
-6.06491e-38
-2.09527e-37
9.78642e-38
-1.91526e-37
6.79394e-38
-1.0961e-37
-1.69726e-37
-1.39688e-37
3.3054e-38
-4.17983e-41
2.94081e-37
-9.25025e-37
-1.00674e-37
1.35774e-36
-1.68305e-36
2.54191e-37
1.45374e-37
-1.98358e-43
-2.5729e-43
1.3675e-36
-2.14345e-36
2.15496e-36
4.36778e-37
-3.93165e-37
3.30926e-36
-1.29794e-36
1.24178e-36
4.26652e-39
-1.96216e-39
-1.12901e-39
1.77477e-36
-1.05113e-36
1.42963e-36
3.74706e-37
3.41951e-37
-4.80857e-37
3.51839e-37
7.66875e-38
1.5263e-37
-4.08028e-37
-7.08243e-38
1.07705e-38
1.54239e-38
-1.93539e-38
-3.81387e-38
-2.76059e-37
-1.15762e-36
1.49311e-36
-3.15675e-36
2.54729e-36
-7.91554e-37
4.5901e-38
6.44808e-37
4.31747e-37
5.09878e-38
3.28238e-37
1.24912e-37
8.73415e-38
-6.20597e-37
5.55744e-38
-4.19597e-36
-9.50077e-37
-1.2542e-36
5.44846e-38
1.66016e-39
-2.62115e-39
3.90709e-38
-1.23544e-36
6.74067e-39
-2.40153e-37
-2.21989e-37
-2.87125e-38
-5.99381e-37
9.1669e-38
-8.36068e-38
-5.72395e-38
1.05859e-38
2.8713e-39
4.52607e-39
-1.00533e-38
2.55193e-38
1.71568e-39
4.36305e-41
1.00252e-39
4.12389e-39
1.19856e-39
-1.11677e-41
1.10076e-41
2.1023e-42
1.15527e-40
-1.92063e-40
2.69473e-41
3.11818e-40
-4.93706e-40
1.05706e-40
-2.86236e-41
-1.64511e-41
3.65067e-39
-1.58816e-38
1.47493e-38
-1.89855e-37
9.05292e-38
-6.73981e-38
-8.41446e-38
-3.44709e-41
-1.04348e-37
1.76295e-38
8.12319e-41
9.5962e-38
-6.42789e-37
-5.70392e-37
-4.69779e-37
3.05146e-37
-4.04268e-37
-7.08872e-37
1.26825e-37
-1.9177e-38
-4.50314e-39
4.20509e-37
-4.89728e-36
4.37254e-37
2.75801e-37
-5.6322e-36
1.49214e-36
-6.91452e-36
3.76791e-37
1.44438e-36
-2.83084e-35
-3.04552e-35
3.01649e-36
-3.69036e-36
-6.05213e-35
-2.78992e-35
-2.46611e-35
1.12094e-36
4.29742e-42
2.62212e-37
-4.23918e-36
-4.3817e-40
-3.32287e-36
9.0001e-38
4.11903e-39
8.98232e-38
-3.93355e-35
-9.14772e-36
-1.50978e-34
-1.46046e-34
-3.62908e-35
2.78392e-37
-3.51592e-35
-1.35807e-34
-1.25567e-34
1.99836e-37
8.78379e-38
-1.0936e-34
-1.0253e-34
2.66255e-37
-2.11257e-35
9.73519e-38
-2.10908e-34
1.63654e-37
-2.85774e-40
-1.21815e-41
-8.39359e-45
1.55759e-38
-2.14085e-35
-2.17074e-35
-2.48466e-35
-2.48408e-35
-2.22633e-35
5.4436e-38
-2.3231e-35
-2.18361e-35
-6.85443e-36
-2.67906e-38
-7.08312e-36
3.7451e-39
-1.24531e-39
-7.16711e-36
-1.71021e-36
-7.0808e-36
4.35719e-39
-2.93658e-41
1.54831e-39
-2.11587e-36
-4.33674e-40
4.84034e-40
-5.47559e-37
-4.9257e-40
-1.75422e-37
-4.24786e-38
-7.2637e-41
-4.38439e-38
-3.07806e-40
-6.59069e-37
-7.17632e-40
-7.27838e-37
1.18016e-39
8.66419e-40
-3.32129e-36
-3.66957e-36
2.61996e-39
-3.37928e-36
-3.94785e-36
-9.46165e-39
1.14262e-41
1.65779e-38
-1.75156e-35
-1.15347e-35
-5.93738e-35
-6.56602e-35
2.22075e-37
-5.985e-35
-6.57264e-35
-8.07047e-35
-2.04249e-37
-2.1627e-37
-8.51152e-35
3.31928e-37
-2.98093e-34
1.24313e-36
-3.21663e-34
-3.23631e-34
-3.2605e-34
-1.68632e-38
-4.22623e-37
-3.53176e-38
-2.23228e-37
-3.16309e-37
-1.75711e-37
3.55366e-37
-2.8208e-34
-5.03545e-38
-2.63684e-34
4.1088e-37
-3.76319e-39
-1.71801e-39
9.20226e-38
-4.67079e-35
1.11385e-37
4.18703e-43
-2.73085e-36
1.52324e-38
-1.688e-34
-1.67505e-34
-6.29402e-34
-6.30729e-34
-6.04584e-34
5.02169e-38
3.63494e-38
-5.61248e-34
-5.36595e-34
-5.19901e-34
-4.90723e-34
-8.11642e-37
-1.82882e-36
-4.48559e-34
-3.71618e-37
-4.3159e-34
-4.50165e-37
-3.96626e-37
1.88168e-41
-1.00642e-42
7.26339e-40
-8.5088e-35
-3.82151e-37
-9.64851e-35
-9.76695e-35
-1.10192e-34
-8.54839e-35
-2.20409e-40
-9.24883e-35
-9.89264e-35
-1.05744e-34
-2.49273e-35
-1.01549e-34
-2.57777e-35
-2.35494e-38
-2.52956e-38
7.26259e-40
-2.72698e-35
-2.77302e-35
-7.08476e-36
-7.22374e-36
-6.90281e-36
-7.51428e-36
-7.43428e-36
-1.95773e-36
-4.69099e-37
-4.91643e-40
-2.79993e-40
-1.29159e-37
-5.44844e-37
1.30198e-41
9.06397e-40
-2.18596e-35
-1.07745e-35
-9.39383e-39
4.16003e-40
-1.01231e-35
1.70038e-40
-9.76372e-42
-1.36146e-41
-1.21528e-40
-1.74593e-37
-1.72787e-34
-4.22392e-34
1.87825e-38
-1.94031e-34
-7.93838e-34
-1.90171e-34
-2.19142e-34
-8.43013e-34
-2.15577e-34
-8.67431e-37
1.42761e-39
-2.6028e-34
9.79898e-39
-3.77303e-33
3.58088e-38
-9.63389e-34
-1.43959e-39
-1.71286e-38
5.64393e-39
-9.95871e-34
-1.05635e-33
-9.29528e-34
-1.39988e-37
-1.01861e-33
-9.536e-34
-9.33492e-38
-3.75993e-33
-9.10174e-34
3.45383e-38
3.86297e-38
-8.35782e-34
-2.07078e-34
1.29775e-38
-1.66112e-44
2.36387e-40
-1.43537e-36
-8.84065e-35
-1.38346e-33
-2.3736e-38
-7.91682e-38
-1.25554e-33
-1.22252e-33
2.31371e-40
-4.15535e-39
-1.12215e-33
-1.0955e-33
-8.85374e-39
-1.03158e-33
-1.00314e-33
-2.64176e-39
-3.66072e-33
-8.92154e-34
-9.2329e-34
-8.47538e-34
-8.16973e-37
3.41253e-42
-8.52351e-37
-7.53849e-34
-7.98954e-34
-7.89824e-34
-7.88873e-34
3.68039e-42
-1.96308e-34
-1.9659e-34
1.30361e-40
-7.64761e-40
8.93967e-41
-7.92448e-34
-7.98114e-34
-2.01265e-34
-5.71202e-35
-2.01272e-37
-5.13281e-38
-1.9669e-34
-6.01127e-35
-2.09096e-34
-1.3651e-35
-1.38988e-35
-1.32586e-35
-1.44749e-38
-3.88782e-36
-3.95081e-36
1.63318e-44
-9.91415e-37
-2.41269e-40
-2.49266e-37
-8.91042e-37
-4.05933e-39
-1.68685e-35
-1.71876e-35
-1.64329e-35
-1.73555e-38
3.60308e-40
-7.41893e-35
-7.55616e-35
-7.51986e-38
-7.45445e-38
-2.99393e-34
-1.26519e-36
-3.51561e-34
-1.38806e-33
-1.3149e-36
-3.28099e-37
-1.46444e-33
-3.84467e-34
-1.46896e-36
-2.86621e-34
-1.73216e-33
-6.11201e-36
-1.52034e-36
-1.71908e-33
-1.62426e-36
-1.66529e-33
6.25345e-38
-1.32178e-39
-1.56254e-36
-1.75293e-33
-1.33483e-36
-1.77614e-33
3.23229e-38
-1.79629e-36
-1.98884e-33
-7.0951e-33
1.26581e-37
2.73003e-38
-1.75603e-33
-1.77157e-33
-1.26583e-38
-1.67124e-38
-1.69944e-33
-1.6107e-33
8.46584e-40
-3.20888e-39
-2.17506e-41
-2.13077e-36
5.01585e-39
-5.14608e-34
-1.94393e-33
-1.90804e-33
-9.75375e-38
2.69136e-39
-5.96622e-39
3.70861e-40
-1.57629e-33
-6.40135e-33
-6.12079e-33
-1.39533e-33
-1.35479e-36
-5.61194e-33
-1.37288e-33
-1.32993e-33
-1.3052e-33
-1.28826e-33
1.33945e-39
9.04307e-40
-1.15796e-33
-1.22682e-33
-4.72913e-36
-4.6696e-33
5.7392e-39
-1.19308e-33
-1.14963e-36
-1.04409e-33
-1.13529e-36
-1.19178e-33
-2.99165e-34
-1.2027e-33
-2.72143e-37
3.44994e-40
-3.26179e-34
3.66817e-40
-7.95925e-38
-3.25905e-34
6.18598e-40
1.47816e-40
-7.67675e-35
-2.07267e-35
-8.28707e-38
-2.68896e-43
-2.26891e-43
-5.62389e-39
-6.09617e-36
-1.50214e-36
1.25542e-41
2.7058e-40
-2.36709e-35
-6.01301e-36
1.13399e-39
-2.48165e-35
-1.96698e-38
-9.93477e-35
3.73599e-39
-4.23595e-34
-1.07606e-34
3.76189e-39
-4.38309e-37
-4.47262e-37
3.34228e-41
2.87616e-42
-4.4464e-37
-5.41479e-34
-1.80038e-36
-5.26826e-34
-1.94796e-36
-2.04884e-33
1.31387e-39
-2.12083e-33
1.3904e-37
1.52862e-37
-2.22678e-33
1.64339e-37
-1.9864e-36
-2.4693e-33
4.56858e-41
-2.38029e-33
1.48654e-36
-1.00277e-32
-2.45509e-36
-1.01898e-32
-1.02525e-32
-2.25006e-32
-2.41937e-33
-1.00858e-32
9.87081e-37
-1.01185e-32
-2.51257e-33
7.46024e-38
-8.20272e-39
-2.14715e-37
-2.39215e-33
-2.37253e-33
-5.77358e-34
9.25941e-39
-8.3205e-44
1.97888e-37
-1.02624e-32
5.08604e-37
-2.39358e-33
2.79887e-37
-8.98157e-33
-8.70453e-33
9.69738e-38
-3.9907e-37
-7.87844e-33
1.11703e-37
1.20549e-39
4.16671e-38
-7.24458e-33
1.65194e-38
-2.78197e-32
-6.84154e-33
-6.61991e-36
-6.4998e-36
4.11839e-39
-1.62866e-33
-1.61138e-33
-1.60078e-33
-6.37156e-33
3.53889e-38
-1.58016e-33
1.38446e-38
-1.57521e-33
-1.47677e-33
-1.7828e-33
-3.50106e-36
-3.72848e-34
-3.98673e-34
-4.00966e-34
-4.07133e-37
-3.81418e-34
-4.10061e-34
-1.03196e-34
3.74133e-42
-1.05539e-34
-1.01904e-37
-4.24301e-37
-1.15915e-34
-2.93384e-35
-2.55729e-38
-2.73659e-35
-7.61178e-36
-1.75455e-36
2.6168e-41
-2.96782e-40
-8.01087e-36
-5.42648e-39
-3.28723e-35
-2.9348e-35
-1.1584e-37
-1.28502e-34
-1.21943e-34
-1.31737e-34
3.5863e-39
3.00866e-38
-5.12874e-34
-4.86561e-34
-5.59059e-37
-5.67455e-34
-3.42177e-38
-5.24281e-33
-2.27877e-37
-2.17323e-36
-2.42492e-33
-2.31244e-33
-2.34472e-33
-2.39741e-36
-2.53747e-36
2.27206e-37
-2.63806e-33
-1.02515e-35
1.75185e-37
-2.40588e-33
2.31889e-37
-1.05066e-32
-1.06196e-32
-4.57321e-32
-1.15539e-32
-1.12824e-32
-3.3804e-36
-1.18371e-32
2.9088e-36
-1.18115e-32
-1.18972e-32
2.37813e-37
-1.4206e-37
5.55801e-37
-1.21917e-32
-3.06808e-33
-2.98539e-33
-2.93902e-33
-2.87522e-33
7.21745e-38
-3.05921e-36
7.33981e-38
-2.94331e-33
-1.12983e-32
-1.10449e-32
1.64749e-36
-4.15161e-32
-1.00439e-32
1.49792e-37
1.10275e-37
-9.36446e-33
6.29493e-38
2.7627e-41
-2.08073e-36
-8.34947e-33
-8.28098e-36
-7.82296e-33
2.58538e-37
-8.11977e-33
4.71397e-38
1.26252e-39
-7.67293e-36
-2.48034e-33
-1.94611e-33
-1.70164e-33
7.13883e-39
-1.95191e-36
-2.16236e-33
-1.84083e-36
-1.91454e-33
-1.91383e-33
-1.87372e-36
-4.26036e-36
-4.64004e-37
-5.0275e-37
-4.57736e-34
-4.9121e-34
1.26376e-38
-4.97743e-34
3.32344e-39
2.92817e-42
-1.20845e-37
-1.23948e-37
-1.29827e-34
3.66847e-39
-3.09621e-35
-3.55134e-35
-7.48133e-39
-2.39695e-36
-8.33899e-39
2.08619e-40
-8.20844e-36
-8.34214e-39
-3.78225e-35
-1.4392e-34
4.54404e-39
3.86195e-39
-1.48181e-34
-5.78275e-34
-6.63354e-38
-5.69993e-34
-6.14703e-34
1.56273e-39
-6.25232e-34
-5.92872e-34
-6.35723e-34
-2.49913e-33
-2.38656e-36
-1.75594e-36
-1.06364e-32
1.24619e-37
-2.72321e-33
-1.70671e-36
-3.13685e-33
-2.54911e-36
-1.13648e-32
1.0018e-36
-1.13601e-35
-4.57861e-35
-1.0817e-35
-1.125e-32
-1.28875e-32
-1.30158e-32
-1.35583e-32
5.11699e-36
-5.13367e-32
-5.23119e-36
-1.25036e-32
2.83009e-36
-1.30858e-32
-5.28986e-32
6.00855e-36
-1.33594e-32
-1.33694e-32
-3.34827e-33
3.63897e-39
-1.60954e-38
-8.08467e-34
2.68083e-38
-2.93191e-35
3.41106e-38
-3.14224e-33
-3.10112e-33
2.4038e-37
6.35804e-37
-4.51857e-32
1.33925e-36
-1.0194e-37
-2.4526e-38
-1.04215e-32
-1.02366e-32
-2.13688e-36
-2.4815e-36
-9.73209e-33
-9.29765e-36
-9.1485e-36
6.33895e-38
-8.70296e-33
-8.99206e-36
-9.11749e-33
-8.79462e-36
-8.74469e-36
7.40223e-41
1.46766e-40
3.77328e-38
-8.80955e-33
-2.19892e-33
8.54858e-39
-2.14222e-36
-2.33343e-33
1.04686e-38
-2.07377e-43
2.59382e-38
-5.07909e-33
-5.90377e-34
-2.45106e-41
-5.25436e-34
-6.35489e-34
-5.51879e-37
-5.68746e-34
-5.71808e-34
-1.35452e-37
1.05739e-41
-1.36755e-37
-1.51293e-34
-4.03415e-35
-8.89887e-39
-9.32914e-36
-8.70189e-39
-2.66447e-36
-8.92971e-36
2.17629e-39
-1.53883e-34
-1.45224e-34
4.36147e-39
-1.52713e-37
-4.84953e-38
-2.56926e-33
-6.34858e-34
-2.55652e-33
1.54522e-37
-6.76161e-37
-2.64755e-36
-2.48469e-36
-2.55699e-33
8.63167e-38
-2.71508e-36
-2.29494e-36
-2.55756e-33
-2.49733e-36
9.85035e-37
-1.1116e-32
-3.17194e-33
-1.13146e-32
-1.07336e-32
-1.15267e-32
8.9739e-37
-1.17275e-35
9.87201e-37
-1.27781e-32
-1.21432e-32
-1.15207e-32
-1.13516e-35
1.82564e-39
-3.19843e-36
-2.38404e-36
-1.32622e-32
-1.34436e-32
-1.34024e-32
-5.40435e-32
2.65221e-36
9.54123e-37
-1.40938e-32
-1.67739e-37
-1.20699e-37
1.34808e-39
2.17221e-40
8.27123e-40
-1.32496e-35
-3.37086e-33
-3.31326e-33
-1.27971e-37
-1.24812e-32
-1.83958e-37
-1.20069e-32
-1.1788e-32
-1.15354e-32
1.66479e-39
-1.12104e-32
8.1324e-37
-1.05465e-32
-1.14399e-32
-2.72827e-36
2.02458e-38
5.23908e-39
7.3239e-38
-1.01862e-32
2.89549e-37
-1.06512e-32
-9.56293e-36
-9.8795e-33
5.64309e-38
2.38264e-40
-9.32389e-36
-3.69017e-32
-2.1921e-36
-2.33907e-36
-2.54971e-33
-2.30873e-36
-2.24637e-33
4.75608e-38
-2.39539e-33
-2.40014e-33
1.33609e-38
-5.89013e-37
-5.79334e-37
-6.10836e-37
-2.37131e-36
-6.10382e-37
-5.90845e-34
-1.34293e-37
-1.62869e-34
-1.63218e-34
-3.60734e-35
-4.36478e-35
-3.76446e-38
-9.71658e-36
-3.76075e-38
-2.14161e-36
-8.20536e-39
-3.67237e-35
-3.93614e-35
-1.62263e-34
5.01139e-39
6.24194e-43
1.002e-37
-2.53428e-33
-6.33828e-34
-2.62093e-33
-6.69753e-37
-2.54575e-33
-5.99419e-34
-3.03325e-37
-2.56604e-33
-2.53154e-36
-2.75191e-33
-2.6036e-33
-2.61078e-33
1.48629e-37
-1.49313e-36
-1.03436e-32
2.76464e-39
-1.01672e-32
-4.02592e-35
-1.17036e-32
-1.08404e-35
-1.26466e-32
8.61035e-37
-1.08119e-35
-1.18344e-35
1.09116e-38
-1.15902e-35
-2.20618e-36
-1.18634e-32
-3.03911e-36
-1.26427e-32
-5.22062e-32
-5.22413e-32
1.69078e-36
4.37597e-37
-1.37108e-32
-1.3964e-32
-1.3979e-32
-1.42363e-32
-3.54631e-33
-3.52052e-33
1.17036e-37
-1.31888e-35
-1.35468e-32
-1.33529e-32
-1.3019e-32
-1.28626e-32
2.68116e-37
9.72289e-37
-4.84717e-32
-1.20926e-32
7.19469e-37
-1.17154e-32
2.18107e-39
-1.11632e-32
-1.16661e-32
2.05341e-37
-4.30145e-32
-1.16874e-32
-1.02847e-35
-1.08035e-32
-1.05758e-35
-1.03737e-35
-9.90106e-33
-1.18227e-32
-9.91843e-36
-1.0331e-32
5.44436e-38
1.81446e-39
-2.48348e-36
1.04153e-37
-2.26832e-32
-2.20742e-33
-1.06602e-32
-2.34129e-36
-2.49694e-33
1.18736e-38
-2.44697e-42
-2.28097e-41
-6.03904e-37
-6.20653e-34
-6.054e-37
-6.20467e-34
2.55579e-39
1.91359e-39
-1.6459e-34
-6.18887e-34
-2.93931e-38
-3.43715e-38
4.69388e-43
-2.17879e-39
-4.01919e-40
-8.8545e-36
-7.49462e-39
-3.82675e-35
2.03986e-39
-1.62103e-34
-1.43365e-37
-1.48081e-37
-1.30572e-36
-6.4316e-34
-6.02136e-34
-2.47821e-33
-2.31706e-33
-2.40078e-33
2.75376e-39
-2.3844e-33
-1.65217e-36
-9.20119e-36
-2.25321e-33
7.21174e-37
-2.41318e-33
6.35296e-38
-9.69473e-33
-8.14162e-36
5.00942e-37
-9.22922e-33
5.21714e-37
6.20085e-39
7.50099e-40
-1.08812e-35
2.27525e-39
-9.65306e-36
-1.06197e-32
-1.01149e-32
-9.63085e-36
-4.46076e-32
-4.91406e-37
-2.2309e-36
-1.1847e-32
-1.21071e-32
-1.23444e-32
-1.26729e-32
-1.29526e-32
-1.31006e-32
-1.35963e-32
-1.36765e-32
-5.54623e-32
-3.47052e-33
1.7239e-37
3.55208e-40
-1.30646e-35
-3.33024e-33
-1.31901e-32
-5.22663e-32
-1.28076e-32
2.5878e-37
1.5327e-37
-1.24704e-32
-4.90211e-32
7.97021e-37
1.66802e-38
5.58258e-37
-4.6993e-32
4.90229e-38
-4.46268e-32
-4.26717e-32
-1.05567e-32
5.4038e-37
-4.58253e-32
-1.10302e-32
-1.16019e-32
-1.1506e-32
-1.06202e-35
-1.03478e-35
-1.05529e-32
5.25748e-38
-1.01843e-35
3.59823e-40
-2.45201e-36
-1.05248e-32
-2.28282e-32
-1.00934e-32
-2.51064e-33
1.0297e-38
-2.3993e-36
-2.63468e-33
-2.39091e-33
-5.35652e-37
-2.37243e-33
-5.76907e-37
-5.86344e-37
-6.82019e-34
-5.86865e-37
-5.99074e-34
-1.49364e-34
1.33227e-41
-1.47459e-34
2.07123e-39
1.37499e-45
1.77608e-40
-9.01671e-36
-3.58043e-35
-3.19207e-38
-3.45713e-38
-1.2272e-37
-1.35624e-37
1.52018e-42
1.94728e-42
1.34859e-39
-4.24719e-37
-5.10334e-34
-2.22204e-33
-2.20094e-33
2.71796e-37
-2.13099e-33
-8.48383e-33
3.49656e-37
1.5409e-37
-2.11607e-33
-3.2674e-37
-8.21259e-33
-1.99311e-38
4.74128e-40
-8.36583e-36
-3.58203e-35
-8.49887e-36
4.10069e-40
4.5124e-37
-8.96793e-33
4.39772e-37
5.81739e-40
-8.7983e-36
-7.95795e-36
-3.91091e-32
1.78766e-36
1.82713e-36
-4.26794e-32
4.77477e-36
-4.43416e-32
1.27105e-36
-8.27026e-37
-1.20697e-32
-1.11206e-31
-1.28231e-32
-1.31202e-32
-1.3321e-32
-1.35166e-32
1.9732e-37
3.4003e-40
-1.28304e-35
1.36029e-39
5.82307e-37
-5.11532e-32
2.37192e-36
-1.90362e-37
-2.9115e-37
-4.89099e-32
-4.87231e-32
7.75856e-37
2.06877e-42
0
4.66406e-38
2.27891e-38
1.21794e-36
-4.57642e-32
-4.39295e-32
-4.61467e-32
-4.42571e-32
-9.88403e-32
-1.08903e-32
7.14676e-39
-1.03909e-35
-1.02541e-35
-1.04334e-32
2.00397e-37
-1.02248e-32
-1.01283e-32
-1.00369e-32
4.59284e-38
9.83061e-38
-2.20143e-32
-2.42868e-33
1.90108e-40
-2.3877e-33
-2.37165e-33
-2.20996e-33
-2.22284e-36
-2.24715e-33
9.6844e-40
-6.43012e-34
-5.6585e-34
-1.36433e-37
-5.38421e-34
4.04542e-39
-3.27975e-38
-1.39457e-34
1.75883e-39
8.57562e-45
-3.50587e-40
-8.50136e-36
-3.31397e-35
6.31141e-40
-1.12713e-37
-1.2396e-34
-1.16928e-37
3.41707e-40
4.66814e-40
2.18816e-38
-4.71025e-34
6.19325e-39
-1.73666e-33
-1.72604e-33
-1.81742e-33
2.60132e-38
-1.15877e-36
-1.98856e-36
-1.74876e-36
-6.87437e-36
-7.79709e-33
2.66068e-38
-2.76881e-32
-5.83189e-36
-6.7209e-36
-7.26576e-33
-7.41013e-36
9.41312e-39
-6.03549e-36
-3.05911e-32
1.34775e-36
-7.0494e-36
-7.87112e-36
-7.54491e-36
-3.29592e-32
-3.48812e-32
1.39164e-36
-1.48498e-31
1.03325e-35
-4.02859e-32
-4.10631e-32
-4.2488e-32
1.20058e-38
-4.53547e-32
6.42856e-38
-1.19862e-32
-4.45312e-37
-1.77013e-37
-1.29497e-32
3.4403e-37
-1.20127e-35
-3.12966e-33
-2.3191e-38
-1.222e-32
-4.89463e-32
4.83242e-36
-4.82166e-32
-4.80233e-32
-4.77371e-32
3.29536e-38
-2.86421e-36
1.97704e-41
-1.28768e-35
-4.40739e-32
-4.62702e-32
-4.70703e-32
-1.81168e-31
-1.20571e-35
-3.78347e-35
-1.69655e-31
-3.93221e-32
-4.14797e-32
-9.71902e-36
-3.93742e-35
-9.34088e-33
4.24638e-38
-9.45175e-36
-1.01903e-32
-1.0066e-32
3.65381e-40
-8.39658e-33
-8.85321e-33
-9.02637e-33
-8.92222e-33
-8.824e-33
5.04709e-39
-2.15326e-33
4.89076e-38
-2.10175e-33
-2.0757e-33
-5.46084e-34
-4.86675e-37
4.9566e-39
-5.09094e-34
-1.17746e-37
-1.20041e-34
-2.4411e-38
-2.84277e-38
2.5047e-43
2.31332e-44
1.1764e-41
-2.52489e-38
-2.27463e-38
-9.96298e-35
-1.11538e-34
-1.00985e-37
-3.9276e-34
-4.00004e-34
-3.94986e-34
-2.6226e-37
4.597e-38
-1.56418e-33
1.58116e-37
-1.39905e-33
-1.05717e-36
-5.82628e-33
-5.78238e-33
1.87614e-37
2.95512e-37
-5.4013e-33
-5.38469e-33
-7.22572e-36
-5.61003e-36
8.73826e-40
-5.78074e-36
-6.3017e-33
-2.4071e-32
8.20944e-37
-2.63329e-35
-9.8886e-35
-2.45014e-32
5.78278e-40
-2.67851e-32
-2.9365e-32
-5.59157e-36
-6.81759e-36
-3.14447e-32
2.19793e-36
-3.46367e-32
-1.44548e-31
-3.7813e-32
1.112e-36
-3.95065e-37
9.70216e-37
-4.49523e-32
2.65371e-36
-1.20224e-32
-3.03463e-33
8.03979e-38
2.26834e-37
-1.17498e-32
-1.15924e-32
-1.15974e-32
1.64961e-36
-4.64145e-32
-4.55086e-32
-4.51774e-32
-4.55665e-32
-2.88573e-38
-2.36584e-41
3.37846e-38
-4.5063e-32
-4.16586e-32
8.55472e-37
-7.82761e-36
-1.67782e-31
-4.07539e-32
-4.28671e-32
-3.71449e-32
7.48572e-38
-1.54206e-31
-8.40793e-36
1.45882e-40
-8.82483e-36
3.70783e-38
-8.33537e-33
-8.49897e-36
-8.33821e-36
-9.00027e-33
3.51471e-38
3.81245e-38
-8.32594e-33
-3.2267e-32
-1.9559e-33
-1.92307e-33
-1.89397e-33
-1.80158e-36
-2.00769e-33
-7.31052e-33
-4.28995e-37
-4.07081e-34
-4.06397e-37
-4.32719e-34
-4.23312e-34
2.52953e-39
3.66069e-41
-5.89862e-39
-5.77431e-39
-3.54239e-38
-5.88539e-36
-4.64678e-39
-8.73858e-35
-8.59392e-35
2.70745e-39
-3.49564e-34
-3.44194e-34
8.41389e-39
-3.09624e-34
-1.21698e-33
7.31941e-38
-1.17783e-33
-1.15972e-33
-1.06941e-33
-1.20846e-33
-1.2014e-33
-4.32663e-33
-3.16632e-41
-4.10632e-33
-4.52308e-36
4.58725e-38
-4.13141e-33
5.4415e-38
-3.80439e-36
-1.80565e-32
-4.61258e-33
-1.76824e-32
-1.69277e-35
-1.53656e-38
6.22076e-37
-2.08475e-32
-2.04208e-35
-2.50654e-35
-2.32435e-32
2.89684e-36
-2.61407e-32
-6.33674e-36
-1.83426e-36
-5.93526e-36
-3.17561e-32
-3.2971e-32
5.28674e-37
2.06989e-41
-5.85552e-37
-3.09727e-36
3.58101e-37
-1.08323e-32
7.65586e-38
9.57091e-43
-1.01445e-35
-1.07377e-32
-1.07695e-32
-1.11172e-32
-8.63306e-37
7.89332e-37
2.10766e-38
2.43287e-36
-1.664e-31
2.20946e-36
-2.04546e-36
-4.1387e-32
-4.13158e-32
-3.83462e-32
-9.04596e-36
-8.41123e-35
-3.30194e-32
-3.72857e-32
-3.64797e-32
-3.68068e-35
7.35158e-37
-1.38279e-31
-3.23255e-35
-7.30997e-35
-7.97228e-36
-7.767e-36
-8.3056e-33
-8.14706e-33
-7.3092e-36
-2.94104e-32
-7.65964e-33
-6.83354e-36
-1.63346e-36
-6.77694e-33
8.17056e-39
-1.52471e-33
-1.46625e-36
-1.55475e-33
7.50207e-38
-6.23948e-33
-1.50017e-33
-1.42063e-33
-3.46758e-34
1.79189e-38
-1.3233e-33
5.27616e-39
-7.85485e-35
-1.80772e-38
-1.90648e-38
-1.78107e-38
9.22707e-43
9.74746e-40
-7.16734e-35
-5.71418e-38
-2.46675e-34
-2.57184e-34
8.57605e-39
-2.35202e-34
8.65682e-39
-8.49845e-34
-9.39365e-34
-3.46271e-33
-8.52356e-34
-8.38465e-34
-8.19778e-34
3.85183e-39
-3.50973e-36
-1.21243e-35
-1.30881e-32
2.92774e-37
-3.10569e-36
3.14892e-38
-3.40368e-33
8.2239e-38
-1.32579e-32
-1.0943e-35
-1.3741e-32
-1.50927e-32
-1.56403e-32
-1.33353e-35
-1.25075e-38
1.70827e-36
-6.89673e-32
1.61908e-36
4.77139e-37
-2.0291e-32
-2.14753e-32
-2.28507e-32
5.86247e-37
4.01472e-37
-2.77066e-32
-2.95563e-32
7.09048e-37
7.26676e-37
-3.56124e-32
-3.77507e-32
1.13689e-36
-2.55155e-33
4.59868e-38
-2.24822e-36
-2.40179e-33
6.16203e-37
-3.92847e-32
-3.88881e-32
-3.86058e-32
2.13983e-36
-3.82023e-32
2.72838e-37
-3.77495e-32
-1.76705e-36
-1.04562e-36
4.0263e-37
-3.64068e-32
-8.20042e-36
2.59659e-40
-2.71492e-35
-3.05601e-32
-2.87357e-35
-2.91633e-35
-2.86908e-35
-2.60559e-35
-2.8529e-35
-2.79272e-35
-6.76452e-36
-2.63247e-35
-2.55925e-32
-6.43035e-33
-4.67107e-41
-6.11077e-33
-5.95704e-33
-5.80361e-33
1.86824e-38
1.91806e-40
1.70242e-43
1.05324e-38
-1.26983e-33
-1.23717e-33
-1.27838e-33
-1.20711e-33
-1.06546e-33
-2.42969e-33
-2.67876e-34
6.35027e-39
-2.44501e-34
2.97393e-40
-6.47951e-35
-1.37998e-38
-1.38066e-35
2.67977e-41
-3.22995e-36
1.8224e-40
-4.21164e-38
-4.40855e-35
-1.81857e-34
4.48576e-39
-1.55441e-37
-6.98945e-34
-6.20223e-34
7.09014e-39
3.16509e-38
-5.92326e-34
-9.53029e-41
6.51767e-40
5.72401e-39
-2.13231e-36
-2.08974e-36
-2.22214e-36
-2.13461e-33
-7.83557e-36
-2.47427e-36
9.5367e-38
-2.18101e-33
4.14626e-38
-6.37781e-39
2.06322e-37
-1.0176e-32
-9.92904e-33
-1.02539e-32
-9.46483e-33
-1.16377e-35
2.73668e-37
-1.27537e-32
-1.3516e-32
-1.43975e-32
1.28417e-36
-1.61585e-32
-1.74268e-32
-9.56391e-37
-2.62042e-36
-2.273e-32
-2.43957e-32
1.97479e-37
5.71487e-38
-8.51354e-38
-3.26317e-32
-8.65159e-33
-2.25977e-33
4.04811e-38
-2.02441e-36
6.67084e-39
4.72308e-37
-3.47927e-32
-3.42478e-32
-3.40938e-32
1.76833e-36
-3.33737e-32
-1.32603e-31
-1.30791e-31
-4.36409e-36
-2.89484e-36
-3.11748e-32
-2.92343e-32
-2.65488e-37
-3.06805e-35
-2.661e-32
-2.68215e-35
-1.04947e-34
-2.79037e-32
-2.5572e-32
-2.47928e-32
-2.33199e-35
-2.22565e-35
-2.2085e-35
-2.13935e-35
-2.05968e-32
-4.89272e-36
-1.99654e-32
5.8585e-38
1.50992e-38
-4.53357e-33
1.37493e-38
-4.14903e-36
-3.99738e-36
-3.97453e-33
-9.02134e-34
-4.87152e-41
-9.53009e-34
-8.6476e-34
-8.59837e-34
-8.30651e-34
-1.7874e-37
-1.81296e-37
-4.44397e-38
-1.68092e-37
-4.28367e-38
-1.07357e-38
-9.11257e-36
-2.23145e-39
-2.00259e-36
-3.25948e-35
-3.03578e-38
-3.26221e-35
-1.27373e-37
-1.10663e-37
-8.65187e-38
-1.7094e-33
7.35321e-38
-3.90296e-34
-3.5266e-34
-3.8872e-34
4.41506e-39
-3.18462e-37
-1.30538e-33
1.76801e-38
1.85541e-38
-1.20352e-33
-1.40187e-36
-1.1912e-33
-5.27075e-33
-5.15058e-33
-5.22697e-33
-5.19306e-36
-5.40635e-36
-5.64261e-36
1.72222e-39
-2.57444e-35
-7.11262e-33
-7.11662e-33
-7.99326e-33
1.41621e-37
-1.19918e-38
-7.27518e-36
-4.10917e-32
-1.11955e-32
-1.22796e-32
-3.4404e-36
-1.40656e-32
-1.5926e-32
-7.09162e-32
6.03003e-37
-2.12152e-32
-2.32324e-32
-2.55716e-32
8.35946e-38
-2.94719e-32
6.40602e-37
3.09702e-41
4.56623e-42
7.30347e-39
-4.181e-38
-2.99277e-32
-1.17613e-31
-2.91248e-32
2.7648e-37
1.79825e-37
-1.34251e-36
-2.72441e-32
-1.09082e-31
-2.56334e-32
-2.65143e-32
-2.56024e-32
-9.79403e-32
-2.37602e-32
-2.45168e-32
-2.51471e-32
-2.23289e-35
-2.09414e-32
-7.84273e-32
-1.96153e-35
-1.78216e-35
-1.9381e-32
8.0811e-38
-1.82346e-40
-4.10793e-36
-1.61108e-32
-1.50111e-32
3.97379e-38
1.95099e-44
4.43919e-41
8.45836e-42
-3.00797e-36
-2.87551e-36
-2.83586e-33
-6.69086e-37
-6.32115e-37