/*--------------------------------*- C++ -*----------------------------------*\
| =========                 |                                                 |
| \\      /  F ield         | OpenFOAM: The Open Source CFD Toolbox           |
|  \\    /   O peration     | Version:  2006                                  |
|   \\  /    A nd           | Website:  www.openfoam.com                      |
|    \\/     M anipulation  |                                                 |
\*---------------------------------------------------------------------------*/
FoamFile
{
    version     2.0;
    format      ascii;
    class       volScalarField;
    location    "20000";
    object      I2_2;
}
// * * * * * * * * * * * * * * * * * * * * * * * * * * * * * * * * * * * * * //

dimensions      [0 0 0 0 0 0 0];


internalField   nonuniform List<scalar> 
14751
(
-1.87168e-05
-1.91218e-05
-1.95909e-05
-1.96281e-05
-1.95785e-05
-1.91809e-05
-1.85389e-05
-1.77152e-05
-1.66977e-05
-1.55677e-05
-1.4362e-05
-1.31203e-05
-1.18779e-05
-1.0679e-05
-9.5453e-06
-8.49289e-06
-7.53036e-06
-6.65875e-06
-5.88107e-06
-5.19285e-06
-4.58969e-06
-4.06119e-06
-3.59849e-06
-3.1943e-06
-2.84363e-06
-2.53843e-06
-2.27385e-06
-2.0441e-06
-1.84491e-06
-1.67187e-06
-1.52163e-06
-1.39092e-06
-1.27719e-06
-1.17815e-06
-1.09173e-06
-1.01656e-06
-9.51235e-07
-8.94184e-07
-8.44524e-07
-8.01582e-07
-7.64855e-07
-7.3303e-07
-7.05721e-07
-6.8237e-07
-6.62543e-07
-6.46418e-07
-6.33707e-07
-6.24271e-07
-6.17917e-07
-6.14635e-07
-6.14418e-07
-6.17151e-07
-6.22829e-07
-6.31702e-07
-6.43873e-07
-6.59462e-07
-6.7867e-07
-7.01702e-07
-7.2893e-07
-7.60313e-07
-7.96088e-07
-8.36867e-07
-8.82922e-07
-9.35494e-07
-9.95146e-07
-1.06209e-06
-1.13707e-06
-1.2214e-06
-1.31622e-06
-1.42211e-06
-1.54004e-06
-1.67045e-06
-1.8146e-06
-1.97368e-06
-2.14896e-06
-2.34374e-06
-2.55903e-06
-2.79756e-06
-3.06185e-06
-3.35298e-06
-3.67527e-06
-4.03167e-06
-4.42967e-06
-4.86908e-06
-5.35786e-06
-5.9023e-06
-6.5071e-06
-7.1776e-06
-7.91521e-06
-8.72728e-06
-9.61129e-06
-1.05589e-05
-1.1587e-05
-1.2651e-05
-1.37504e-05
-1.48766e-05
-1.59187e-05
-1.68497e-05
-1.79139e-05
-0.00894662
-0.00905437
-0.00916934
-0.00914294
-0.00906355
-0.00886188
-0.00855576
-0.00817466
-0.00771982
-0.00721809
-0.00668584
-0.00614018
-0.00559411
-0.00506661
-0.00456726
-0.00410183
-0.00367465
-0.00328554
-0.00293654
-0.00262635
-0.00235397
-0.00211528
-0.00190439
-0.00171794
-0.00155413
-0.00141016
-0.00128383
-0.00117305
-0.00107594
-0.000990813
-0.000916152
-0.000850731
-0.00079332
-0.000743009
-0.000698872
-0.000660337
-0.000626815
-0.000597577
-0.000572158
-0.000550394
-0.000531997
-0.000516331
-0.000503089
-0.000492098
-0.000483115
-0.000476329
-0.000471643
-0.000469012
-0.000468372
-0.000469801
-0.000473287
-0.000478796
-0.000486317
-0.000496077
-0.000508139
-0.000522679
-0.000539779
-0.00055966
-0.000582466
-0.000608212
-0.000637017
-0.000669272
-0.000705228
-0.000745713
-0.000791104
-0.000841432
-0.000897183
-0.000959195
-0.0010283
-0.00110496
-0.00118987
-0.00128307
-0.0013846
-0.00149484
-0.00161458
-0.00174525
-0.00188754
-0.00204205
-0.00221011
-0.00239067
-0.00258632
-0.00279735
-0.0030269
-0.00327395
-0.00354087
-0.00383019
-0.00414207
-0.0044769
-0.00483342
-0.00521035
-0.00560533
-0.00601273
-0.00643147
-0.00685142
-0.00725652
-0.0076558
-0.00800507
-0.00833628
-0.00866001
-2.58985
-2.60116
-2.62227
-2.62873
-2.62911
-2.61348
-2.56891
-2.50778
-2.42882
-2.335
-2.22936
-2.115
-1.99476
-1.87297
-1.7527
-1.63534
-1.52306
-1.4163
-1.31665
-1.22478
-1.14198
-1.06814
-1.0006
-0.938291
-0.881604
-0.829955
-0.783145
-0.740752
-0.702525
-0.668107
-0.637196
-0.609492
-0.584754
-0.562705
-0.543185
-0.526004
-0.511092
-0.498141
-0.487051
-0.477812
-0.470375
-0.464442
-0.459841
-0.456564
-0.454515
-0.453852
-0.454563
-0.456691
-0.460243
-0.465299
-0.471853
-0.479722
-0.489109
-0.50011
-0.512814
-0.52729
-0.54359
-0.561823
-0.581988
-0.604036
-0.627927
-0.653874
-0.681957
-0.712539
-0.745691
-0.781251
-0.819323
-0.860111
-0.904063
-0.95131
-1.00231
-1.05635
-1.11249
-1.17058
-1.23046
-1.29229
-1.35614
-1.42101
-1.48744
-1.55373
-1.62103
-1.6881
-1.75596
-1.82337
-1.89037
-1.95788
-2.02474
-2.09039
-2.15425
-2.21439
-2.27115
-2.32233
-2.367
-2.40731
-2.43651
-2.46486
-2.48425
-2.51187
-2.53763
-151.15
-150.56
-150.976
-151.596
-152.445
-153.39
-153.269
-152.573
-151.007
-148.887
-146.259
-143.224
-139.799
-136.127
-132.323
-128.416
-124.525
-120.627
-116.817
-113.167
-109.845
-107.021
-104.379
-101.836
-99.4468
-97.1995
-95.1113
-93.1758
-91.399
-89.7845
-88.3257
-87.0195
-85.8621
-84.8535
-84.0037
-83.2927
-82.7461
-82.3371
-82.0752
-81.9669
-82.0038
-82.1842
-82.4769
-82.9174
-83.4687
-84.1673
-85.0098
-86.0067
-87.1637
-88.4912
-89.9169
-91.4959
-93.2271
-95.1365
-97.2091
-99.4528
-101.861
-104.435
-107.161
-110.042
-113.026
-116.135
-119.357
-122.695
-126.136
-129.659
-133.225
-136.815
-140.474
-144.226
-148.175
-152.169
-156.051
-159.777
-163.289
-166.572
-169.654
-172.392
-174.846
-176.862
-178.55
-179.782
-180.669
-181.115
-181.142
-180.84
-180.164
-179.097
-177.646
-175.722
-173.506
-170.804
-167.657
-164.486
-160.758
-157.5
-154.25
-151.992
-150.088
-1512.19
-1494.77
-1487
-1484.59
-1486.02
-1493.02
-1494.98
-1495.98
-1493.9
-1487.18
-1477.7
-1468.12
-1457.29
-1445.54
-1433.54
-1421.29
-1409.23
-1396.67
-1384.32
-1372.26
-1360.91
-1352.37
-1345.22
-1338.31
-1332.24
-1326.91
-1322.32
-1318.57
-1315.86
-1314.13
-1313.2
-1313.42
-1314.57
-1316.87
-1320.29
-1324.87
-1330.64
-1337.52
-1345.81
-1355.47
-1366.33
-1378.45
-1391.69
-1406.3
-1422.19
-1439.32
-1457.71
-1477.87
-1499.31
-1521.17
-1544.33
-1568.71
-1594.23
-1621.25
-1649.34
-1678.7
-1708.95
-1740.17
-1772.13
-1804.85
-1837.48
-1870.46
-1903.51
-1936.17
-1968.5
-1999.92
-2030.39
-2059.23
-2086.47
-2112.52
-2138.06
-2162.48
-2184.46
-2203.54
-2219.52
-2231.88
-2241.48
-2246.32
-2247.63
-2243.88
-2236.29
-2223.53
-2206.57
-2184.77
-2158.54
-2128.15
-2094.11
-2056.02
-2014.43
-1968.7
-1921.3
-1869.78
-1814.43
-1761.2
-1702.59
-1650.93
-1599.49
-1556.77
-1518.64
-4197.1
-4119.05
-4056.75
-4004.75
-3958.84
-3929.04
-3894.31
-3862.59
-3831.76
-3799.45
-3766.5
-3731.62
-3702.02
-3675
-3651.55
-3630.24
-3612.14
-3595.44
-3580.63
-3565.99
-3548.16
-3523.08
-3502.81
-3484.18
-3469.36
-3457.92
-3449.63
-3444.17
-3441.81
-3442.86
-3446.26
-3452.92
-3462.91
-3475.81
-3491.88
-3511.13
-3533.31
-3558.93
-3587.13
-3619.51
-3654.25
-3692.18
-3733.83
-3777.56
-3825.26
-3876.5
-3930.95
-3987.42
-4046.62
-4107.36
-4171.14
-4237.26
-4306.21
-4376.89
-4449.72
-4524.69
-4601.59
-4679.42
-4758.06
-4837.41
-4917.07
-4996.42
-5075.11
-5153.06
-5229.51
-5303.69
-5374.84
-5442.61
-5506.31
-5563.18
-5610.65
-5652.54
-5690.52
-5723.65
-5751.86
-5775.55
-5794.78
-5806.74
-5813.25
-5811.73
-5806.14
-5789.86
-5765.48
-5732.99
-5688.73
-5635.69
-5571.46
-5498.51
-5416.58
-5323.9
-5225.55
-5118.54
-5001.25
-4883.82
-4754.38
-4632.54
-4505.83
-4378.77
-4252
-5268.36
-5125.54
-4984.94
-4841.88
-4695.85
-4565.02
-4436.07
-4315.12
-4202.23
-4096.33
-3999.1
-3909.27
-3825.15
-3749.15
-3682.37
-3622.38
-3569.12
-3520.92
-3477.92
-3437.21
-3399.76
-3362.89
-3331.87
-3306.37
-3285.5
-3269.46
-3258.09
-3251.52
-3248.25
-3249.19
-3254.41
-3262.96
-3275.6
-3291.89
-3311.42
-3334.2
-3361.05
-3390.89
-3424.22
-3460.34
-3499.74
-3542.7
-3589.03
-3638.17
-3691.11
-3746.44
-3804.98
-3865.54
-3928.05
-3994.32
-4061.21
-4131.08
-4202.68
-4275.18
-4349.84
-4425.48
-4502.61
-4580.57
-4658.06
-4735.76
-4814.09
-4891.94
-4968.45
-5045.37
-5119.75
-5193.65
-5264.57
-5333.22
-5399.85
-5462.28
-5520.97
-5577.31
-5633.74
-5689.21
-5743.01
-5795.79
-5848.04
-5901.15
-5952.63
-5999.7
-6044.86
-6084.73
-6120.13
-6150.17
-6170.9
-6186.14
-6191.1
-6187.8
-6174.63
-6151.09
-6120.03
-6078.09
-6023.72
-5960.49
-5879.59
-5792.75
-5687.29
-5554.18
-5381.92
-3962.5
-3827.75
-3684.94
-3532.87
-3374.29
-3229.38
-3089.81
-2961.17
-2844.21
-2738.3
-2643.81
-2559.03
-2483.83
-2416.3
-2356.39
-2304.34
-2259.09
-2219.21
-2184.58
-2154.25
-2129.57
-2111.52
-2097.75
-2087.6
-2081.2
-2078.23
-2077.62
-2080.53
-2086.14
-2094.15
-2104.86
-2117.84
-2133.2
-2151.04
-2170.63
-2192.54
-2215.83
-2241.67
-2269.97
-2299.21
-2330.82
-2364.47
-2399.77
-2436.76
-2474.84
-2514.02
-2555.11
-2597.51
-2639.98
-2683.92
-2728.69
-2773.84
-2819.18
-2864.61
-2910.49
-2956.51
-3001.25
-3046.45
-3091.37
-3134.41
-3177.5
-3219.54
-3260.51
-3300.78
-3339.19
-3376.91
-3413.56
-3449.32
-3483.63
-3518.41
-3555.05
-3592.99
-3631.45
-3671.71
-3712.67
-3756.55
-3801.92
-3847.27
-3895.11
-3942.77
-3991.94
-4040.69
-4088.8
-4135.97
-4180.85
-4222.81
-4261.35
-4294.49
-4324.21
-4349.66
-4369.28
-4384.11
-4390.1
-4388.53
-4371.39
-4342.38
-4292.22
-4206.05
-4071.11
-2350.57
-2264.98
-2173.04
-2073.99
-1971.87
-1878.84
-1792.14
-1712.69
-1643.03
-1581.62
-1527.69
-1480.51
-1440.41
-1405.56
-1375.62
-1350.22
-1328.78
-1311.78
-1297.41
-1286.6
-1278.67
-1273.93
-1271.87
-1271.74
-1273.35
-1277.4
-1282.79
-1290.03
-1298.48
-1308.42
-1319.88
-1332.61
-1346.43
-1361.06
-1377.25
-1394.44
-1412.23
-1431.61
-1451.54
-1472.75
-1494.18
-1516.54
-1539.61
-1563.29
-1587.04
-1611.69
-1636.17
-1660.62
-1685.27
-1709.61
-1734.04
-1757.88
-1781.55
-1804.84
-1827
-1848.6
-1869.48
-1889.1
-1908.08
-1926.1
-1943.3
-1959.27
-1974.05
-1988.01
-2001.37
-2014.03
-2025.81
-2037.62
-2048.93
-2060.84
-2073.73
-2087.43
-2101.93
-2117.72
-2135.37
-2154.14
-2173.97
-2195.21
-2218.25
-2242.04
-2266.58
-2292.94
-2319.17
-2346.41
-2373.9
-2400.6
-2426.07
-2450.72
-2474.47
-2496.62
-2517.48
-2537.39
-2552.34
-2564.01
-2567.44
-2561.51
-2541.17
-2495.77
-2416.3
-1344.53
-1296.14
-1245.16
-1189.63
-1132.44
-1080.53
-1033.46
-991.188
-954.789
-923.096
-896.005
-873.271
-853.98
-838.38
-825.093
-814.87
-806.768
-800.758
-796.615
-794.609
-794.303
-795.403
-797.61
-801.405
-805.817
-811.249
-818.036
-825.327
-833.445
-841.996
-851.582
-861.768
-872.36
-883.402
-895.072
-907.354
-920.056
-932.969
-946.009
-959.347
-973.058
-986.676
-1000.41
-1014.26
-1027.9
-1041.47
-1054.26
-1067.05
-1079.34
-1091.1
-1102.18
-1112.79
-1122.76
-1132.11
-1140.54
-1148.14
-1154.96
-1160.88
-1165.47
-1170.01
-1173.13
-1175.84
-1177.68
-1178.92
-1180.04
-1180.39
-1180.54
-1180.59
-1181.24
-1182.06
-1183.33
-1185.45
-1188.35
-1192.48
-1197.32
-1202.87
-1209.53
-1217.66
-1226.5
-1236.54
-1247.43
-1259.71
-1272.81
-1286.47
-1300.92
-1315.36
-1330.36
-1345.8
-1361.16
-1376.12
-1391.81
-1407.65
-1421.61
-1434.06
-1442.6
-1445.51
-1440.13
-1418.83
-1377.52
-782.606
-757.216
-730.211
-700.772
-670.522
-643.545
-618.954
-597.138
-579.037
-563.413
-550.575
-540.138
-531.746
-525.026
-520.18
-516.564
-514.463
-513.527
-513.542
-514.648
-516.687
-519.536
-522.886
-526.99
-531.827
-536.896
-542.744
-548.608
-555.156
-561.935
-568.953
-576.329
-583.832
-591.588
-599.595
-607.497
-615.567
-623.662
-631.597
-639.482
-647.564
-655.146
-662.477
-669.679
-676.608
-682.964
-688.863
-694.384
-699.404
-703.71
-707.489
-710.585
-713.155
-715.019
-716.207
-716.817
-716.558
-715.855
-714.554
-712.629
-710.161
-707.286
-704.158
-700.664
-696.929
-693.166
-689.354
-685.696
-682.216
-679.312
-676.768
-674.878
-673.75
-673.135
-673.268
-673.831
-675.395
-677.69
-680.719
-684.84
-689.735
-695.403
-702.011
-709.41
-717.176
-725.785
-734.842
-744.514
-754.653
-765.167
-776.381
-788.256
-799.649
-810.617
-819.153
-824.977
-825.872
-817.59
-797.82
-473.055
-460.344
-446.471
-431.111
-415.165
-401.254
-388.796
-377.809
-368.905
-361.59
-355.63
-351.104
-347.639
-345.227
-343.926
-343.208
-343.289
-344.265
-345.575
-347.523
-349.857
-352.735
-356.009
-359.57
-363.419
-367.621
-371.809
-376.334
-380.981
-385.771
-390.631
-395.446
-400.418
-405.417
-410.346
-415.208
-419.953
-424.594
-429.177
-433.45
-437.466
-441.145
-444.505
-447.488
-450.176
-452.425
-454.454
-455.764
-456.72
-457.076
-457.023
-456.527
-455.593
-454.127
-452.06
-449.598
-446.764
-443.41
-439.991
-435.982
-431.949
-427.567
-423.12
-418.625
-414.023
-409.596
-405.399
-401.207
-397.237
-393.886
-390.876
-388.453
-386.392
-384.724
-383.57
-382.821
-382.79
-383.243
-384.429
-386.198
-388.733
-391.896
-395.536
-399.985
-404.822
-410.381
-416.426
-422.931
-430.173
-437.804
-446.226
-455.191
-464.013
-472.714
-480.409
-486.574
-490.066
-487.789
-479.183
-298.283
-292.055
-285.236
-277.227
-268.938
-261.844
-255.552
-250.097
-245.764
-242.487
-239.943
-238.095
-236.905
-236.395
-236.34
-236.702
-237.532
-238.753
-240.311
-242.194
-244.288
-246.599
-249.123
-251.758
-254.507
-257.413
-260.412
-263.564
-266.56
-269.672
-272.717
-275.718
-278.713
-281.731
-284.456
-287.153
-289.631
-291.909
-294.033
-295.913
-297.468
-298.887
-299.829
-300.465
-300.83
-300.862
-300.573
-299.925
-298.812
-297.424
-295.662
-293.689
-291.297
-288.605
-285.652
-282.458
-279.035
-275.38
-271.512
-267.586
-263.621
-259.589
-255.566
-251.547
-247.666
-243.839
-240.294
-236.907
-233.861
-231.05
-228.619
-226.622
-224.832
-223.363
-222.224
-221.528
-221.186
-221.404
-221.991
-223.029
-224.654
-226.685
-229.187
-232.229
-235.639
-239.444
-243.817
-248.638
-253.921
-259.677
-265.954
-272.767
-279.575
-286.643
-293.115
-298.687
-302.778
-303.314
-299.858
-195.862
-193.09
-189.781
-185.705
-181.552
-177.877
-174.681
-172.063
-170.065
-168.549
-167.476
-166.815
-166.741
-166.782
-167.131
-167.773
-168.627
-169.656
-170.975
-172.393
-173.91
-175.596
-177.268
-179.113
-180.94
-182.807
-184.642
-186.58
-188.388
-190.267
-191.989
-193.742
-195.303
-196.768
-198.083
-199.265
-200.249
-201.156
-201.661
-202.123
-202.326
-202.281
-202.021
-201.482
-200.694
-199.675
-198.367
-196.811
-195.084
-193.14
-190.919
-188.512
-185.926
-183.173
-180.259
-177.266
-174.18
-171.012
-167.739
-164.498
-161.267
-158.103
-155.04
-151.94
-149.1
-146.3
-143.718
-141.331
-139.182
-137.187
-135.636
-134.121
-132.895
-131.92
-131.25
-130.77
-130.606
-130.856
-131.363
-132.155
-133.301
-134.821
-136.703
-138.948
-141.557
-144.428
-147.691
-151.289
-155.286
-159.666
-164.451
-169.69
-175.021
-180.671
-185.976
-190.781
-194.709
-196.421
-195.49
-133.142
-132.409
-130.782
-128.892
-126.623
-124.809
-123.27
-122.04
-121.103
-120.423
-120.059
-119.913
-119.964
-120.211
-120.588
-121.076
-121.755
-122.441
-123.302
-124.247
-125.2
-126.153
-127.217
-128.342
-129.445
-130.491
-131.561
-132.556
-133.504
-134.413
-135.313
-136.018
-136.675
-137.162
-137.578
-137.864
-137.97
-137.985
-137.782
-137.451
-136.938
-136.197
-135.314
-134.304
-133.099
-131.673
-130.157
-128.496
-126.641
-124.732
-122.645
-120.447
-118.2
-115.899
-113.488
-111.024
-108.551
-106.106
-103.681
-101.314
-98.9316
-96.6295
-94.4293
-92.3596
-90.3592
-88.4985
-86.8086
-85.2275
-83.7915
-82.6116
-81.5823
-80.6288
-79.9237
-79.3366
-78.9554
-78.7791
-78.8585
-79.0849
-79.6206
-80.308
-81.2388
-82.4868
-83.9448
-85.6193
-87.6217
-89.8254
-92.3909
-95.1086
-98.2169
-101.591
-105.315
-109.388
-113.691
-117.964
-122.282
-126.271
-129.823
-131.849
-132.138
-93.2744
-93.423
-92.718
-91.941
-90.7774
-89.9196
-89.1916
-88.5355
-88.1247
-87.8222
-87.6773
-87.6637
-87.64
-87.8025
-88.0214
-88.3368
-88.6964
-89.1296
-89.584
-89.9946
-90.5234
-90.9813
-91.5787
-92.0443
-92.5875
-93.0626
-93.5561
-93.9572
-94.3005
-94.5902
-94.8521
-94.9822
-95.0523
-95.0176
-94.9471
-94.6929
-94.3639
-93.881
-93.3487
-92.6749
-91.8684
-90.949
-89.9104
-88.7777
-87.5469
-86.1832
-84.7782
-83.2594
-81.6626
-80.0372
-78.3468
-76.585
-74.7945
-73.0117
-71.2272
-69.4014
-67.5976
-65.8528
-64.1465
-62.4744
-60.8532
-59.3099
-57.8592
-56.4979
-55.1989
-53.9955
-52.9031
-51.973
-51.1313
-50.4005
-49.7495
-49.2724
-48.8541
-48.5823
-48.4277
-48.4246
-48.6092
-48.8741
-49.3353
-50.0182
-50.7877
-51.7701
-52.9201
-54.2807
-55.7942
-57.5186
-59.4583
-61.6721
-64.0452
-66.7094
-69.6366
-72.7412
-76.1503
-79.5517
-83.0473
-86.2703
-89.3175
-91.223
-92.0421
-67.0178
-67.451
-67.2884
-67.0471
-66.4851
-66.0596
-65.7143
-65.3229
-65.0984
-64.9181
-64.7725
-64.6943
-64.6739
-64.6575
-64.6925
-64.7665
-64.8264
-64.9487
-65.0871
-65.1814
-65.3201
-65.4827
-65.652
-65.7477
-65.8906
-66.0087
-66.0275
-66.0478
-66.0802
-66.0108
-65.8889
-65.7251
-65.4832
-65.1753
-64.8062
-64.3426
-63.832
-63.2406
-62.5747
-61.803
-60.967
-60.0723
-59.1242
-58.1242
-57.0395
-55.9104
-54.7387
-53.5224
-52.2975
-50.9997
-49.7202
-48.4542
-47.1393
-45.8309
-44.5806
-43.2978
-42.0846
-40.9066
-39.7551
-38.6209
-37.5731
-36.5767
-35.6461
-34.7709
-33.9689
-33.2517
-32.5911
-32.0252
-31.5494
-31.1334
-30.7751
-30.5326
-30.3151
-30.2386
-30.232
-30.3448
-30.5123
-30.8456
-31.2408
-31.7919
-32.4685
-33.2456
-34.166
-35.2125
-36.421
-37.7859
-39.3125
-41.0163
-42.8727
-44.9538
-47.2465
-49.6846
-52.3339
-55.1294
-57.905
-60.5872
-63.0533
-64.7889
-65.76
-49.0941
-49.6801
-49.7375
-49.708
-49.3961
-49.2412
-48.996
-48.7539
-48.5652
-48.3776
-48.222
-48.044
-47.9174
-47.7544
-47.6334
-47.4644
-47.359
-47.224
-47.0973
-47.0061
-46.9008
-46.8046
-46.7007
-46.5962
-46.4447
-46.3236
-46.1744
-45.9727
-45.7618
-45.512
-45.2309
-44.8921
-44.5627
-44.1524
-43.668
-43.1724
-42.6396
-42.0435
-41.4149
-40.7281
-40.0136
-39.274
-38.4826
-37.6428
-36.8053
-35.944
-35.0112
-34.1298
-33.2218
-32.2876
-31.3717
-30.4703
-29.5763
-28.6883
-27.8226
-26.9733
-26.1755
-25.4025
-24.6479
-23.9443
-23.2842
-22.6607
-22.0689
-21.5553
-21.0605
-20.6497
-20.2818
-19.9528
-19.6763
-19.464
-19.2926
-19.1666
-19.1031
-19.1019
-19.1804
-19.3079
-19.5034
-19.7853
-20.1604
-20.5757
-21.1197
-21.7556
-22.4778
-23.3123
-24.2518
-25.3315
-26.5382
-27.8306
-29.3217
-30.9677
-32.7256
-34.6986
-36.7557
-39.01
-41.2007
-43.4158
-45.4256
-46.943
-47.9537
-36.4769
-37.1031
-37.1674
-37.2434
-37.1051
-37.0239
-36.8376
-36.6174
-36.4415
-36.2287
-35.977
-35.7379
-35.4735
-35.211
-34.9175
-34.6444
-34.4178
-34.1614
-33.875
-33.6372
-33.3809
-33.1482
-32.8975
-32.6616
-32.3983
-32.1199
-31.8807
-31.5824
-31.2803
-30.9804
-30.6352
-30.2707
-29.8911
-29.4961
-29.0645
-28.5995
-28.124
-27.5958
-27.0801
-26.515
-25.9413
-25.36
-24.7694
-24.132
-23.5048
-22.8857
-22.2372
-21.5949
-20.9564
-20.3194
-19.698
-19.0727
-18.4884
-17.9091
-17.3324
-16.7996
-16.2904
-15.7872
-15.314
-14.8797
-14.4666
-14.0967
-13.7528
-13.4313
-13.166
-12.9168
-12.7052
-12.5277
-12.4041
-12.2896
-12.2176
-12.1758
-12.1769
-12.234
-12.3236
-12.4461
-12.6451
-12.8662
-13.1849
-13.5467
-13.9477
-14.4477
-15.0278
-15.6984
-16.4144
-17.2574
-18.181
-19.2127
-20.3849
-21.6826
-23.0724
-24.6429
-26.2899
-28.0222
-29.8348
-31.5934
-33.2831
-34.5773
-35.4723
-27.3496
-27.9667
-28.0525
-28.1555
-28.0927
-27.9846
-27.8242
-27.5988
-27.379
-27.1274
-26.8103
-26.5296
-26.1977
-25.8385
-25.4989
-25.1466
-24.8026
-24.4777
-24.1208
-23.7959
-23.4907
-23.1728
-22.8723
-22.5714
-22.2797
-21.9788
-21.675
-21.3878
-21.0825
-20.7605
-20.4406
-20.1063
-19.758
-19.3969
-19.0401
-18.669
-18.2854
-17.889
-17.465
-17.0429
-16.6229
-16.1756
-15.7433
-15.3098
-14.8617
-14.4242
-13.9959
-13.5624
-13.1226
-12.711
-12.302
-11.8933
-11.5054
-11.1352
-10.7801
-10.4486
-10.1267
-9.81209
-9.53205
-9.26443
-9.02509
-8.80239
-8.60286
-8.41512
-8.26466
-8.13072
-8.0121
-7.92558
-7.86377
-7.82026
-7.79778
-7.79688
-7.83589
-7.89802
-7.98242
-8.11115
-8.26738
-8.47088
-8.70686
-8.99741
-9.32841
-9.71443
-10.1749
-10.6673
-11.2483
-11.9034
-12.6235
-13.4467
-14.351
-15.3576
-16.4966
-17.7307
-19.0337
-20.4316
-21.8642
-23.3099
-24.6732
-25.7934
-26.5327
-20.6864
-21.2258
-21.3341
-21.4058
-21.3508
-21.2285
-21.0618
-20.8597
-20.5859
-20.282
-19.9654
-19.6286
-19.2475
-18.8587
-18.4834
-18.1109
-17.7192
-17.3394
-17.0005
-16.6416
-16.3101
-15.9757
-15.6629
-15.371
-15.0743
-14.8066
-14.5072
-14.2384
-13.9688
-13.687
-13.4071
-13.1405
-12.8487
-12.5692
-12.2771
-11.9964
-11.7018
-11.4052
-11.105
-10.8134
-10.5172
-10.2051
-9.89889
-9.6066
-9.30704
-9.00961
-8.72243
-8.43475
-8.15441
-7.88953
-7.63657
-7.37808
-7.13764
-6.90507
-6.68633
-6.47988
-6.276
-6.0953
-5.92897
-5.77438
-5.63763
-5.50285
-5.38915
-5.2951
-5.20604
-5.13432
-5.07869
-5.04492
-5.00887
-4.99392
-5.00104
-5.0237
-5.06936
-5.12458
-5.21138
-5.31724
-5.4438
-5.61448
-5.79482
-6.01702
-6.28813
-6.5854
-6.92189
-7.32208
-7.77433
-8.27476
-8.83885
-9.48685
-10.2024
-10.9889
-11.8849
-12.8607
-13.8965
-15.0367
-16.1741
-17.3317
-18.4576
-19.3823
-20.0148
-15.733
-16.1717
-16.2503
-16.338
-16.2457
-16.1328
-15.9604
-15.7327
-15.4581
-15.134
-14.8131
-14.4355
-14.0516
-13.6743
-13.2841
-12.9093
-12.5295
-12.1521
-11.8169
-11.4877
-11.1576
-10.8578
-10.5655
-10.3057
-10.0449
-9.78504
-9.54772
-9.31091
-9.08591
-8.86097
-8.64492
-8.42847
-8.21884
-8.00742
-7.80131
-7.58263
-7.36844
-7.16591
-6.96621
-6.75974
-6.54672
-6.3495
-6.15163
-5.95286
-5.75936
-5.5699
-5.38398
-5.20084
-5.03207
-4.85773
-4.70145
-4.54967
-4.40176
-4.26167
-4.1289
-4.00224
-3.88586
-3.784
-3.68457
-3.59745
-3.51598
-3.43961
-3.37745
-3.32833
-3.28177
-3.2469
-3.22347
-3.21006
-3.20039
-3.20193
-3.21487
-3.24434
-3.28571
-3.33992
-3.40762
-3.49488
-3.59863
-3.72506
-3.87051
-4.04346
-4.24764
-4.47264
-4.73557
-5.04278
-5.38271
-5.76935
-6.21728
-6.71531
-7.27872
-7.90197
-8.59154
-9.37416
-10.2119
-11.1091
-12.0434
-12.9662
-13.8948
-14.6323
-15.1634
-11.9901
-12.33
-12.399
-12.4575
-12.3703
-12.2602
-12.0794
-11.8295
-11.568
-11.2584
-10.9311
-10.5528
-10.1929
-9.83247
-9.45878
-9.09232
-8.74195
-8.41173
-8.08664
-7.78354
-7.51447
-7.25195
-7.0074
-6.78058
-6.55528
-6.34841
-6.15927
-5.97831
-5.79714
-5.62322
-5.46286
-5.29984
-5.15477
-4.99882
-4.85204
-4.71233
-4.56738
-4.4288
-4.28916
-4.15421
-4.01745
-3.89469
-3.76387
-3.63986
-3.51722
-3.40027
-3.28785
-3.17955
-3.07474
-2.97265
-2.86867
-2.78268
-2.69342
-2.60848
-2.53471
-2.4638
-2.39881
-2.33539
-2.28016
-2.22892
-2.18458
-2.1501
-2.11474
-2.08805
-2.06643
-2.04974
-2.04437
-2.03866
-2.04372
-2.05353
-2.06827
-2.09529
-2.12778
-2.17353
-2.22965
-2.29723
-2.37731
-2.47053
-2.58343
-2.71298
-2.86194
-3.03747
-3.23852
-3.46806
-3.73055
-4.03125
-4.37488
-4.75889
-5.19673
-5.68448
-6.2279
-6.84989
-7.50902
-8.23214
-8.97859
-9.73525
-10.4759
-11.0838
-11.5331
-9.14707
-9.40553
-9.46146
-9.48965
-9.4031
-9.29023
-9.12696
-8.88606
-8.6289
-8.33954
-8.00697
-7.6744
-7.3396
-7.00173
-6.65911
-6.32893
-6.02571
-5.73464
-5.46028
-5.20553
-4.9659
-4.75553
-4.5536
-4.36687
-4.1889
-4.03732
-3.88685
-3.74842
-3.61549
-3.49723
-3.37718
-3.26976
-3.15919
-3.05893
-2.95876
-2.86721
-2.77421
-2.67986
-2.5919
-2.50934
-2.42781
-2.34698
-2.26611
-2.18899
-2.11811
-2.04621
-1.9796
-1.91457
-1.85365
-1.79346
-1.73369
-1.68289
-1.63413
-1.58465
-1.54238
-1.50382
-1.46602
-1.43128
-1.40176
-1.3746
-1.35193
-1.33333
-1.31855
-1.30503
-1.29721
-1.29031
-1.29164
-1.29261
-1.29676
-1.30941
-1.32591
-1.34629
-1.37332
-1.4107
-1.45325
-1.50128
-1.56512
-1.63321
-1.71612
-1.81215
-1.92319
-2.05538
-2.20322
-2.37848
-2.58017
-2.8077
-3.06404
-3.36508
-3.6979
-4.07848
-4.51379
-4.99131
-5.52775
-6.09193
-6.68855
-7.29705
-7.90007
-8.41446
-8.76806
-6.97584
-7.18812
-7.22731
-7.24056
-7.14892
-7.04057
-6.87416
-6.64863
-6.41348
-6.13713
-5.84855
-5.5548
-5.24704
-4.94169
-4.64609
-4.36392
-4.10021
-3.85637
-3.6286
-3.41942
-3.22314
-3.05142
-2.89297
-2.75148
-2.62158
-2.50269
-2.39339
-2.29272
-2.19949
-2.11662
-2.03562
-1.96266
-1.89013
-1.82409
-1.76349
-1.69874
-1.64136
-1.58768
-1.5345
-1.48155
-1.43357
-1.385
-1.33836
-1.29542
-1.25368
-1.21053
-1.17239
-1.13459
-1.09907
-1.06539
-1.03549
-1.00491
-0.977354
-0.952559
-0.928428
-0.906501
-0.888293
-0.870155
-0.855257
-0.841652
-0.830936
-0.821149
-0.814061
-0.809206
-0.806729
-0.806582
-0.808611
-0.812319
-0.818423
-0.829092
-0.842425
-0.858671
-0.882094
-0.907083
-0.93786
-0.975295
-1.02022
-1.07059
-1.13016
-1.20229
-1.28363
-1.37821
-1.49143
-1.61626
-1.76877
-1.93837
-2.13546
-2.36443
-2.61955
-2.91993
-3.26098
-3.63125
-4.05173
-4.5044
-4.97951
-5.46801
-5.95688
-6.36913
-6.65325
-5.30132
-5.4889
-5.51052
-5.51564
-5.43624
-5.32736
-5.16483
-4.97386
-4.75231
-4.50819
-4.25748
-3.99146
-3.72433
-3.46305
-3.2125
-2.9762
-2.75231
-2.55212
-2.36714
-2.19825
-2.05327
-1.91608
-1.79714
-1.68857
-1.59538
-1.50738
-1.43228
-1.36069
-1.30205
-1.24272
-1.18944
-1.14143
-1.09784
-1.05593
-1.01738
-0.981457
-0.94611
-0.914648
-0.884729
-0.852632
-0.825259
-0.798676
-0.77271
-0.748963
-0.725273
-0.703284
-0.681358
-0.660661
-0.641048
-0.623787
-0.608607
-0.592651
-0.57714
-0.564548
-0.552089
-0.542139
-0.532084
-0.524163
-0.515973
-0.50975
-0.505376
-0.501458
-0.498061
-0.497537
-0.497248
-0.498598
-0.501423
-0.505573
-0.512796
-0.519317
-0.52911
-0.542488
-0.558203
-0.576565
-0.599468
-0.625669
-0.655723
-0.693474
-0.736379
-0.787099
-0.844616
-0.914604
-0.996736
-1.09064
-1.19827
-1.32777
-1.47681
-1.64433
-1.84468
-2.07443
-2.3327
-2.632
-2.95761
-3.31836
-3.70064
-4.08933
-4.48279
-4.80823
-5.05147
-4.02561
-4.17625
-4.18809
-4.19851
-4.12429
-4.02709
-3.88712
-3.71874
-3.52607
-3.31064
-3.08021
-2.85178
-2.62557
-2.40181
-2.19859
-2.00451
-1.82283
-1.66161
-1.51448
-1.38732
-1.27355
-1.17481
-1.08758
-1.00844
-0.940953
-0.88172
-0.829722
-0.782128
-0.741721
-0.704258
-0.67226
-0.642039
-0.616063
-0.590977
-0.567844
-0.547618
-0.528583
-0.509447
-0.4923
-0.476889
-0.461926
-0.446173
-0.4338
-0.420392
-0.408004
-0.397402
-0.386453
-0.376157
-0.367302
-0.358835
-0.350677
-0.342624
-0.33561
-0.329518
-0.324225
-0.319612
-0.31392
-0.311304
-0.308253
-0.30571
-0.303482
-0.302299
-0.302299
-0.302474
-0.303642
-0.305938
-0.307523
-0.310913
-0.31551
-0.321412
-0.328838
-0.33783
-0.34853
-0.362195
-0.376993
-0.394234
-0.416646
-0.441134
-0.471953
-0.507225
-0.547833
-0.597808
-0.653579
-0.723751
-0.800822
-0.897323
-1.00696
-1.13435
-1.28571
-1.45767
-1.65696
-1.88672
-2.14417
-2.42696
-2.73008
-3.04133
-3.35993
-3.63441
-3.82357
-3.05807
-3.17363
-3.1872
-3.18934
-3.12839
-3.04923
-2.92951
-2.77522
-2.60846
-2.42415
-2.23308
-2.03654
-1.84409
-1.66308
-1.4902
-1.33402
-1.19207
-1.06498
-0.952691
-0.856585
-0.771568
-0.698661
-0.636535
-0.582371
-0.536527
-0.496722
-0.460934
-0.431822
-0.405282
-0.382879
-0.363965
-0.346178
-0.33016
-0.316388
-0.304554
-0.292786
-0.282514
-0.273462
-0.264084
-0.256412
-0.24883
-0.24131
-0.235136
-0.229449
-0.223579
-0.21813
-0.213013
-0.209323
-0.204677
-0.201273
-0.197389
-0.194122
-0.191405
-0.18917
-0.186812
-0.184758
-0.183098
-0.181749
-0.1811
-0.180675
-0.180448
-0.180357
-0.180948
-0.181659
-0.182989
-0.184995
-0.1865
-0.188758
-0.192394
-0.19635
-0.201895
-0.207329
-0.214586
-0.223224
-0.232685
-0.245431
-0.259551
-0.276795
-0.29696
-0.321301
-0.349573
-0.383703
-0.422167
-0.470017
-0.529157
-0.595459
-0.675312
-0.771576
-0.882702
-1.01322
-1.16364
-1.33917
-1.53845
-1.76455
-2.00107
-2.25099
-2.50499
-2.7322
-2.8866
-2.31527
-2.41504
-2.4255
-2.42824
-2.37914
-2.31011
-2.20333
-2.07807
-1.93714
-1.77873
-1.6201
-1.45423
-1.29605
-1.14636
-1.00515
-0.878893
-0.769874
-0.671718
-0.587784
-0.515546
-0.455196
-0.402957
-0.359124
-0.323257
-0.292556
-0.266305
-0.244437
-0.226289
-0.210594
-0.197534
-0.186121
-0.176565
-0.168043
-0.160887
-0.154381
-0.148812
-0.14362
-0.13959
-0.135252
-0.131867
-0.128488
-0.125876
-0.12282
-0.120381
-0.118158
-0.116106
-0.114199
-0.112749
-0.110986
-0.109654
-0.108615
-0.10789
-0.107124
-0.106591
-0.105932
-0.105461
-0.105471
-0.10531
-0.105234
-0.105607
-0.106023
-0.10647
-0.107385
-0.107947
-0.108902
-0.109898
-0.11165
-0.113546
-0.115556
-0.118134
-0.121404
-0.124958
-0.129392
-0.134693
-0.141093
-0.14929
-0.158404
-0.169232
-0.182608
-0.197667
-0.21691
-0.239624
-0.267332
-0.3003
-0.340608
-0.387433
-0.444803
-0.511863
-0.593782
-0.691569
-0.806045
-0.942031
-1.0961
-1.26681
-1.45782
-1.65915
-1.85782
-2.04157
-2.17395
-1.74595
-1.83729
-1.85072
-1.85481
-1.81585
-1.75651
-1.66954
-1.5668
-1.4481
-1.31489
-1.17604
-1.04362
-0.911017
-0.786982
-0.677047
-0.576728
-0.49129
-0.417183
-0.35578
-0.302932
-0.259607
-0.224359
-0.195212
-0.171325
-0.151283
-0.135338
-0.122351
-0.111388
-0.102437
-0.0951443
-0.0888751
-0.0840496
-0.0798435
-0.0763938
-0.0730461
-0.0707684
-0.0686787
-0.0667047
-0.0652936
-0.0641541
-0.0629769
-0.0622071
-0.06114
-0.0604289
-0.0600127
-0.0594665
-0.0591908
-0.0589171
-0.0588666
-0.0586069
-0.0585314
-0.058602
-0.0588122
-0.0589371
-0.0593592
-0.0594469
-0.0600391
-0.0604591
-0.0606906
-0.06139
-0.0616605
-0.0623712
-0.0630735
-0.0635362
-0.0642144
-0.0651424
-0.0660971
-0.0673062
-0.0683385
-0.0700139
-0.071537
-0.0741024
-0.076662
-0.0798253
-0.0840469
-0.0884549
-0.0941569
-0.100625
-0.109271
-0.119109
-0.131419
-0.146161
-0.164472
-0.186563
-0.213221
-0.245589
-0.285882
-0.333789
-0.393425
-0.46297
-0.550743
-0.651206
-0.769002
-0.901569
-1.05268
-1.21138
-1.37366
-1.5229
-1.62895
-1.317
-1.39308
-1.4094
-1.41866
-1.38869
-1.34483
-1.2774
-1.19048
-1.08707
-0.980025
-0.865358
-0.75254
-0.644702
-0.545953
-0.456949
-0.379361
-0.312373
-0.25633
-0.21093
-0.174051
-0.144362
-0.120331
-0.101421
-0.0859478
-0.0738637
-0.0642656
-0.0566341
-0.0507581
-0.0459116
-0.0420654
-0.0390158
-0.0366068
-0.0345609
-0.0330909
-0.0319578
-0.030975
-0.0303472
-0.0297895
-0.0295195
-0.0291291
-0.0289677
-0.0288892
-0.0290118
-0.0289659
-0.0291841
-0.0294266
-0.0297077
-0.0298703
-0.0302485
-0.0307394
-0.0310811
-0.0314992
-0.0319877
-0.0324104
-0.032863
-0.033476
-0.0339903
-0.0344851
-0.0349997
-0.0355015
-0.0359538
-0.0364095
-0.0368133
-0.0373173
-0.0378273
-0.0384459
-0.0388796
-0.0394806
-0.0400993
-0.0409347
-0.0418722
-0.0431034
-0.0446646
-0.0464469
-0.0484758
-0.0512419
-0.0544363
-0.058642
-0.063498
-0.0696962
-0.0772595
-0.0864798
-0.0981379
-0.11202
-0.129594
-0.151888
-0.178887
-0.213157
-0.25486
-0.304354
-0.3669
-0.44256
-0.531624
-0.635819
-0.750261
-0.876985
-1.00931
-1.13082
-1.21942
-0.996474
-1.06063
-1.07875
-1.0893
-1.06976
-1.03839
-0.984194
-0.91328
-0.830025
-0.738913
-0.64412
-0.550645
-0.461892
-0.381737
-0.31032
-0.249268
-0.198365
-0.157195
-0.12369
-0.0976307
-0.0776473
-0.0619738
-0.0497797
-0.0405323
-0.0335496
-0.0280443
-0.023922
-0.0208634
-0.018428
-0.0166432
-0.0152129
-0.0142015
-0.0134569
-0.0128614
-0.0125066
-0.0122265
-0.0121303
-0.0121256
-0.0121407
-0.0122243
-0.0124292
-0.0126187
-0.0129643
-0.0132243
-0.0135782
-0.0140071
-0.0144392
-0.0148141
-0.0153339
-0.0158266