/*--------------------------------*- C++ -*----------------------------------*\
| =========                 |                                                 |
| \\      /  F ield         | OpenFOAM: The Open Source CFD Toolbox           |
|  \\    /   O peration     | Version:  2006                                  |
|   \\  /    A nd           | Website:  www.openfoam.com                      |
|    \\/     M anipulation  |                                                 |
\*---------------------------------------------------------------------------*/
FoamFile
{
    version     2.0;
    format      ascii;
    class       volScalarField;
    location    "20000";
    object      I2_31;
}
// * * * * * * * * * * * * * * * * * * * * * * * * * * * * * * * * * * * * * //

dimensions      [0 0 0 0 0 0 0];


internalField   nonuniform List<scalar> 
14751
(
3.00927e-36
4.66436e-35
5.41668e-35
-7.22224e-35
6.9815e-34
7.94446e-34
-1.56482e-33
-2.26297e-33
3.85186e-34
1.22778e-33
-1.37223e-33
7.02964e-33
3.03334e-33
5.29631e-34
1.52871e-33
6.25927e-34
-6.25927e-34
-4.45371e-34
-2.64815e-34
6.80094e-34
-3.91205e-35
-6.01853e-36
2.06135e-34
5.26621e-35
-4.10012e-34
-6.01853e-35
1.36922e-34
4.66436e-35
2.70834e-35
-2.63311e-36
-2.83059e-35
-4.30701e-35
-3.25847e-35
4.80542e-35
-1.61278e-35
1.70917e-35
-1.70682e-35
-7.06472e-36
-3.51473e-36
-2.7918e-36
-7.05297e-37
1.68977e-36
2.23344e-37
7.99336e-37
-3.46771e-37
-1.02856e-38
-1.01386e-37
-3.23261e-38
1.30774e-36
3.27669e-37
1.04325e-37
3.46771e-37
3.14445e-37
7.08235e-37
2.52584e-36
-2.51262e-36
-7.78765e-37
1.44233e-35
-1.9425e-36
-9.00135e-36
4.48157e-36
-1.90988e-35
-2.48029e-35
-4.22002e-36
-2.84587e-35
1.26248e-35
4.17065e-35
6.02558e-35
-8.20495e-35
7.68773e-36
-5.76933e-35
-2.73373e-34
1.13506e-34
-2.1441e-34
-2.0416e-34
-4.22049e-34
-5.45429e-36
-2.49863e-34
-3.41458e-34
2.95143e-34
-9.68607e-35
1.20277e-34
-1.91465e-34
-9.32411e-34
-2.68706e-34
5.27139e-34
3.61112e-35
-4.54023e-34
5.64237e-34
-2.25695e-34
2.03125e-34
-8.21529e-34
4.03242e-34
5.41668e-34
3.97223e-34
3.91205e-34
1.98612e-34
2.49017e-34
0
-8.83524e-29
-2.8399e-29
6.31089e-30
2.74376e-29
-5.22226e-28
6.53966e-28
6.62471e-28
-3.23293e-27
1.29393e-27
-1.22155e-27
1.48306e-27
-3.59721e-28
1.21642e-27
-4.52806e-28
6.8552e-28
-7.1313e-28
-1.3174e-27
1.9832e-27
3.90486e-28
5.39581e-28
-7.47051e-28
3.06078e-28
-2.16937e-28
-3.21461e-28
2.99767e-29
1.79663e-28
3.36646e-28
4.33873e-29
6.80393e-29
6.76448e-29
-5.94604e-29
5.54175e-29
-3.20475e-29
3.23433e-29
1.35585e-29
1.12906e-29
-3.116e-29
-3.87035e-30
-7.82698e-30
9.20749e-30
3.45127e-31
-5.97809e-30
-3.01986e-31
3.42045e-31
-1.43443e-30
-2.04919e-31
-1.79111e-31
9.7115e-32
5.49426e-31
2.07615e-31
-6.09364e-31
4.77631e-31
-5.1769e-31
7.33394e-31
-4.11687e-30
3.45743e-30
8.82538e-30
-8.01187e-31
-1.19562e-30
3.2861e-29
-4.58525e-30
3.97882e-29
8.41616e-29
-1.2819e-30
2.09541e-29
-1.36079e-29
-6.16791e-29
-1.02552e-28
3.23433e-29
1.27007e-28
-9.06204e-29
-6.60671e-30
2.08654e-28
1.03341e-28
-1.38642e-28
1.78283e-28
2.86751e-28
-9.09162e-29
1.09849e-28
-2.63282e-28
2.09837e-28
-6.23989e-28
-2.78468e-28
5.00532e-28
1.20341e-27
-5.50625e-28
-1.02236e-27
-4.96982e-29
1.42468e-27
-8.25937e-28
-1.3245e-27
4.10208e-29
-9.26123e-28
9.09557e-28
1.00047e-27
1.21406e-27
-3.05791e-28
1.07285e-28
-3.5341e-28
-8.27181e-25
-7.65142e-24
-8.5303e-25
-1.44757e-24
4.32202e-23
-5.15954e-23
-7.46531e-23
-6.70016e-23
-2.81241e-23
2.29543e-23
-1.07947e-22
-3.45348e-23
2.58494e-23
1.1746e-22
-1.55303e-22
1.55717e-22
3.92911e-23
2.99853e-23
5.88849e-23
-4.20311e-23
6.9173e-23
-9.86413e-23
-1.81721e-23
1.87667e-23
-4.04543e-23
6.09012e-23
-4.33624e-23
-2.90547e-23
7.85498e-24
4.45902e-23
9.18946e-24
3.40243e-24
-1.87255e-23
1.87965e-23
7.88326e-24
-5.03377e-24
-9.19032e-24
-6.77991e-25
-4.76262e-24
3.83433e-24
-3.13601e-25
-1.18645e-24
9.7844e-25
4.69833e-25
7.21966e-26
4.24092e-27
-2.31736e-25
-5.02851e-26
-1.09052e-25
-1.66002e-25
-2.37491e-25
6.95914e-25
-7.25399e-25
-8.603e-26
1.41798e-24
-1.07174e-24
-1.09799e-24
6.43347e-24
-1.54366e-24
-1.13934e-24
-3.27899e-24
6.8732e-24
2.98461e-24
-9.64718e-24
-1.02081e-23
3.32306e-23
-1.03846e-23
3.31195e-26
-6.57221e-24
4.71509e-23
6.00998e-25
6.83587e-23
-2.78333e-23
-2.79141e-23
-4.67551e-24
6.54184e-23
-1.07146e-22
4.12815e-23
2.4502e-23
-5.5014e-23
-6.74847e-23
2.45795e-23
5.58815e-23
-9.14907e-24
-5.36431e-23
-4.56179e-23
-1.23626e-22
3.88549e-24
5.45875e-23
5.26261e-23
1.89218e-23
-8.35711e-23
-1.88313e-23
-9.46088e-24
2.60691e-23
-7.80652e-24
1.75614e-23
6.82424e-24
-3.92911e-24
4.23516e-22
-9.95264e-21
-2.83227e-21
4.33575e-20
7.34272e-20
1.14429e-19
-7.68682e-20
1.90582e-21
-2.78991e-19
2.88944e-19
4.91173e-19
9.25383e-20
-2.25417e-19
1.91747e-19
1.02173e-20
-1.92965e-19
-1.83806e-19
3.27219e-19
-4.74338e-20
8.88326e-20
2.01329e-19
-1.03285e-19
-2.92491e-19
-2.92041e-19
2.23167e-19
-1.16943e-19
-1.83184e-19
3.24394e-19
-9.34482e-20
-1.02905e-19
2.05773e-19
-9.34499e-20
1.35166e-20
-2.88205e-20
-2.79374e-20
6.69909e-20
-2.28558e-20
5.12496e-20
-1.47652e-20
1.62458e-21
-3.25247e-21
-9.0659e-22
-7.27919e-23
-2.15729e-21
-8.07328e-22
-7.4711e-21
3.83812e-21
2.30949e-21
-2.97785e-22
-2.52125e-21
3.36828e-21
7.21301e-21
-5.56527e-21
-3.03476e-20
1.7609e-20
-9.21909e-20
-5.14506e-21
9.24722e-20
-1.1693e-20
5.22116e-21
1.59216e-20
-9.57776e-20
7.93763e-20
-1.64275e-19
5.01015e-20
3.03749e-20
-8.5205e-20
-3.39562e-19
-3.5267e-19
5.95289e-20
2.08813e-20
2.55089e-19
2.16721e-19
-1.31608e-19
3.23156e-19
-1.99053e-19
-2.50867e-19
-2.10197e-19
-2.38493e-20
1.67765e-19
-3.35902e-20
1.00056e-20
-6.27598e-19
-2.48816e-19
-9.10957e-20
-2.45798e-19
2.02494e-21
6.67899e-20
4.16323e-19
2.35667e-19
-2.83698e-19
2.98348e-19
8.91552e-20
3.14726e-20
1.10718e-20
1.64245e-20
5.59836e-21
8.04681e-21
4.23516e-22
-8.13152e-20
-1.0842e-19
7.08967e-19
-1.38913e-19
-2.32256e-18
-5.01359e-18
2.0837e-18
7.38952e-18
-6.43067e-18
-5.60397e-18
-3.483e-18
1.29359e-17
1.4325e-17
2.6258e-18
-6.46456e-18
1.78317e-17
2.92735e-17
1.36372e-18
-1.71711e-17
-1.30045e-17
3.6136e-17
-8.7075e-19
6.94652e-18
-5.07796e-18
-1.49959e-17
-1.13613e-17
-1.52889e-17
-8.3653e-18
-2.72067e-18
-4.31648e-18
2.74608e-18
9.13949e-19
1.79063e-18
-2.1684e-19
3.34154e-18
-5.28972e-19
2.66815e-20
1.93971e-19
7.48354e-19
4.47869e-20
1.56643e-18
-1.67657e-18
-4.67713e-19
-6.56384e-19
1.66191e-18
-7.2199e-19
-8.09552e-19
7.41154e-20
-2.02864e-19
-2.00747e-19
9.90182e-19
3.15181e-18
2.41574e-18
4.91279e-18
-5.22026e-18
6.61956e-18
-1.30104e-18
-5.5108e-18
-5.0822e-19
-3.8252e-18
3.37119e-19
-1.20651e-17
4.6536e-18
-9.08189e-18
2.36847e-17
-2.30122e-17
-7.16759e-18
-6.87791e-19
-9.82812e-18
-3.16672e-17
2.04032e-17
2.85048e-17
8.78426e-18
-5.82907e-18
4.35777e-18
-3.11512e-17
-1.09627e-17
-7.57819e-18
1.91379e-17
-1.06466e-17
-1.39858e-17
-2.11165e-17
-8.50463e-18
-1.37139e-17
6.59923e-18
4.84079e-18
-2.6563e-18
-7.62414e-18
-2.11038e-18
8.64185e-18
4.37408e-18
-1.07446e-18
-6.79797e-19
2.11589e-18
7.94773e-19
1.16891e-19
-1.59666e-19
5.55654e-19
5.42101e-20
-5.42101e-20
-3.5101e-18
-1.50433e-18
-1.45944e-18
-2.14808e-18
1.18043e-17
-2.92e-17
-4.37645e-17
-1.0282e-16
-3.63547e-18
5.50876e-17
-1.25171e-16
-1.75031e-17
-2.49502e-17
-9.73885e-17
3.40033e-17
7.67886e-17
1.24222e-16
-6.12303e-17
8.67362e-17
-5.2638e-17
1.8323e-17
8.32125e-18
2.05727e-17
5.96311e-19
2.31748e-18
1.35525e-20
-8.0502e-18
-1.19262e-18
1.26039e-18
-1.09301e-17
-1.62766e-17
-5.48877e-18
6.95583e-18
-1.49078e-19
5.74119e-18
-3.95547e-17
3.11332e-17
2.32818e-17
-1.70759e-17
2.71114e-17
-4.00147e-17
1.55939e-17
1.25429e-17
3.45589e-19
-6.11219e-18
1.82281e-18
-1.49484e-17
-5.28549e-19
-1.48265e-17
1.62359e-17
1.99087e-17
4.07931e-18
9.16151e-18
2.968e-17
-5.55247e-17
1.87567e-17
-3.7405e-17
-2.83519e-17
-6.59737e-17
-5.57551e-17
-6.20706e-18
-2.28767e-17
-1.20889e-17
-1.65341e-18
-1.51788e-18
8.7468e-17
-2.1413e-17
-3.35832e-17
1.63227e-16
-9.04767e-17
7.0446e-17
3.10759e-17
4.71357e-17
1.83501e-17
1.98816e-17
-5.14115e-17
4.86807e-17
1.90616e-17
-7.9865e-17
2.56888e-17
-2.5682e-18
-1.66086e-17
1.91057e-17
2.26835e-17
2.29512e-17
-5.1669e-18
-1.38761e-17
-2.64698e-18
9.20386e-18
1.53313e-18
6.22887e-19
-2.5411e-21
6.8652e-18
-1.60682e-18
-2.16967e-18
1.91599e-18
1.6263e-17
7.04731e-19
6.28837e-18
-1.17636e-17
-6.77626e-20
8.06661e-18
8.41443e-18
2.33883e-17
2.1867e-17
8.50421e-19
3.74727e-18
2.76234e-17
9.5071e-18
-5.44812e-18
-2.53771e-17
-5.29226e-18
5.77948e-17
4.36086e-17
9.86963e-18
2.83858e-17
-2.14621e-17
2.00747e-18
6.38276e-18
-8.22842e-17
-2.2432e-17
-3.76591e-18
-2.80885e-17
-9.72902e-18
-1.87025e-17
-4.40965e-18
1.50331e-17
-3.5101e-17
-7.07916e-17
7.02868e-18
-1.74472e-17
7.25009e-17
-4.27718e-17
3.18417e-17
-3.70662e-18
2.54313e-17
6.06476e-19
3.41541e-17
1.75556e-17
-3.94201e-17
-1.92836e-17
9.70107e-18
8.24629e-18
-1.44843e-18
-7.99176e-19
1.05468e-17
1.26534e-17
8.31532e-18
-2.37347e-17
2.22253e-17
1.42017e-17
1.10955e-17
3.46818e-18
-3.57421e-18
1.19501e-17
-1.93108e-17
1.91607e-17
2.43769e-17
-1.69199e-17
-8.19405e-20
8.29172e-18
-1.06476e-18
-2.5772e-18
5.68526e-18
1.13002e-17
1.7403e-17
-7.85791e-18
6.20325e-18
4.97886e-18
-9.90351e-18
1.03524e-17
-2.44284e-18
4.65699e-18
6.18334e-18
-1.4857e-18
1.55854e-18
-2.37169e-20
1.35525e-19
3.11878e-18
4.47911e-18
-4.68748e-18
1.10301e-17
-4.74338e-19
1.13164e-18
1.05752e-17
2.82299e-17
-3.90059e-19
-2.07633e-17
2.67065e-17
-8.45651e-18
-2.51925e-17
-3.33985e-18
3.44552e-17
-9.35548e-18
-5.80218e-19
-8.18573e-18
-4.44523e-18
-8.74138e-19
-2.33442e-18
-8.79135e-18
-6.04231e-18
-1.01813e-18
5.87364e-19
-2.18153e-18
-6.99649e-18
5.85977e-18
4.99368e-18
3.89635e-19
5.39984e-19
7.96211e-20
1.2282e-19
5.66665e-19
1.86517e-18
4.9399e-18
9.0785e-18
-3.16367e-17
2.14299e-18
-4.5096e-17
-4.31479e-18
1.67357e-17
-1.2775e-17
2.5134e-17
-1.07573e-19
-2.43344e-17
2.27754e-17
3.8371e-17
-1.57209e-17
1.60047e-18
2.69672e-17
-2.12798e-17
3.12053e-17
-5.39327e-18
-1.19749e-19
-7.68291e-18
1.73937e-17
-1.03798e-17
1.45231e-17
-2.08397e-18
2.87207e-18
5.48589e-18
5.42126e-18
5.82843e-18
-8.6857e-18
-3.66323e-18
-2.13055e-19
-3.04429e-18
9.43304e-19
5.1218e-18
1.88867e-18
-3.57977e-18
-5.18051e-18
-3.06954e-18
-1.05932e-18
2.84264e-18
4.40139e-19
2.77033e-19
1.0175e-19
-2.09747e-19
-8.60797e-19
-8.5688e-19
6.3771e-19
-3.97587e-18
-3.00231e-18
6.87155e-19
-2.60251e-19
-1.35165e-18
1.02597e-19
-2.90998e-18
2.44814e-18
-2.61828e-18
1.00511e-18
-1.07626e-18
-3.85929e-18
-2.02388e-18
7.38502e-18
-2.69886e-19
-4.3231e-18
3.62742e-19
7.33403e-18
-1.45376e-17
-4.24607e-18
-2.13357e-18
4.49287e-18
1.45969e-17
-1.87059e-17
1.34034e-17
-1.2435e-17
-2.82835e-18
-1.01758e-17
-1.01101e-17
5.99276e-18
-8.35111e-18
7.04986e-18
-4.77801e-18
-5.20756e-18
5.89535e-19
1.70042e-19
-1.72583e-20
7.43616e-19
5.31076e-19
2.84352e-19
-1.37884e-19
-1.371e-19
-6.17077e-21
9.06788e-20
2.84266e-19
1.09464e-18
-9.57339e-19
1.42631e-18
2.25589e-19
2.49378e-19
-5.13293e-18
-4.21826e-18
8.50143e-19
-1.47789e-18
2.96479e-18
-1.28494e-18
-5.3975e-18
5.98076e-18
6.20141e-18
1.64248e-18
9.54082e-18
-5.05268e-19
-1.90989e-18
1.09077e-19
-8.26542e-18
1.03966e-17
-6.33529e-19
-3.86936e-18
-3.80911e-18
1.47395e-19
3.8245e-18
4.54127e-18
-3.70859e-20
-2.67885e-18
-1.38003e-18
7.77591e-19
-1.04863e-18
-2.25265e-18
-6.39538e-19
-2.69304e-19
5.79515e-19
1.18221e-18
-4.84514e-19
-9.9083e-20
1.29847e-20
-2.4148e-19
-3.44957e-19
-1.48306e-20
4.59902e-21
6.62468e-21
-2.32872e-21
2.62082e-21
-2.94025e-20
7.4805e-20
1.47378e-19
9.6903e-20
-3.14894e-19
5.92506e-20
-1.96563e-19
1.95649e-19
1.23447e-19
-1.58265e-19
7.39847e-20
9.78705e-20
6.40003e-20
-3.61196e-20
1.46373e-19
1.62141e-19
2.36762e-20
4.77586e-20
-6.80324e-20
1.0711e-19
-8.94314e-20
-2.15032e-20
-6.00633e-20
4.44886e-20
9.89559e-20
-1.17616e-19
7.75974e-20
1.94194e-19
-2.67334e-19
-3.67019e-19
4.80495e-19
-2.96127e-19
4.74357e-20
-1.98671e-19
-8.76552e-19
8.96102e-19
6.71108e-20
2.06055e-19
1.79975e-18
8.05985e-19
4.00117e-19
-1.58819e-19
4.27259e-22
-3.3848e-23
-2.38802e-23
1.77829e-23
-8.41809e-26
6.82288e-23
6.88434e-23
1.44337e-22
-3.31928e-21
-2.77804e-21
-1.26031e-20
-2.28678e-20
-3.62113e-20
-1.41278e-20
5.81549e-20
4.15977e-20
-3.1564e-20
1.08692e-19
-1.48686e-20
-1.2705e-19
2.4547e-19
-1.77094e-19
1.53674e-19
1.91354e-19
8.25245e-20
4.82869e-20
-5.46951e-19
-2.23869e-19
-1.34389e-19
4.88978e-19
7.30649e-20
1.54533e-19
1.03246e-19
-8.00379e-20
6.13462e-21
5.45681e-20
-4.96088e-20
-3.06715e-20
7.22153e-21
-1.60664e-20
1.63096e-20
1.08617e-20
5.24089e-21
-9.09429e-23
-2.71684e-22
5.25818e-23
-9.01636e-23
4.43818e-22
-4.29513e-22
2.14168e-22
-8.31606e-22
-3.35862e-23
-6.22591e-23
2.88937e-21
-3.99591e-21
2.65714e-20
-1.07982e-20
-4.12424e-20
-1.28683e-19
3.0663e-20
1.34557e-19
7.30334e-20
1.08452e-19
3.05263e-19
3.58034e-19
-1.26511e-19
1.40393e-19
-1.57351e-18
1.01719e-18
-7.00343e-19
1.7741e-18
8.32058e-20
-9.70199e-19
-1.57142e-19
5.02356e-19
-2.36858e-18
-3.19091e-18
-4.09235e-18
2.03078e-18
2.80275e-18
-2.20924e-18
5.06757e-19
-1.47031e-18
-5.97354e-19
-1.50826e-18
1.65477e-18
-4.57947e-21
2.15399e-19
2.73642e-19
7.88416e-19
-2.27747e-20
-1.47156e-19
3.07691e-20
3.25718e-19
-1.95376e-19
6.99809e-20
2.5914e-20
1.15941e-21
2.72323e-22
8.98914e-20
6.15952e-20
3.73588e-20
-1.74701e-21
1.0797e-19
5.76317e-20
5.25162e-20
3.16847e-20
2.31781e-19
1.80767e-19
-6.02326e-20
1.85513e-19
-2.90603e-19
1.32177e-19
-3.83905e-19
-6.22688e-20
-4.64575e-19
1.1932e-19
-8.14869e-20
1.05445e-19
1.40204e-19
3.8789e-19
4.57585e-19
-2.77556e-20
-3.59311e-19
-9.95771e-20
-1.14796e-19
-1.38652e-19
-4.06628e-19
4.9578e-19
-1.29269e-19
-3.39601e-19
-2.08549e-21
3.88172e-20
7.26534e-20
1.28963e-20
1.39844e-20
-3.57451e-19
-1.05515e-20
4.20718e-19
9.51399e-20
-1.42084e-20
6.14052e-19
-2.41692e-21
-2.6606e-19
-8.72651e-20
3.58824e-21
8.31775e-20
8.39435e-21
6.39952e-20
1.05889e-19
-1.83959e-20
-2.31749e-19
-1.82036e-19
1.40926e-19
-5.96694e-19
-1.4875e-18
5.47286e-19
-3.49817e-18
-1.8459e-18
7.68088e-19
2.24651e-18
4.47881e-18
-1.32526e-19
1.42035e-18
4.82094e-19
5.72391e-18
4.42224e-18
1.22914e-18
1.81833e-18
-8.77895e-20
-3.74539e-20
4.26116e-18
1.81025e-18
-2.20751e-18
4.62892e-18
-3.2482e-18
-7.44039e-18
-5.69006e-18
-4.29131e-18
-5.49054e-18
-3.02665e-19
-2.67876e-18
-3.0408e-18
-3.47679e-18
4.2158e-18
-4.98419e-18
-1.59871e-18
2.99204e-18
3.93337e-19
2.90018e-18
-1.49149e-18
2.94502e-18
2.1811e-18
9.96849e-19
2.0415e-19
-1.44882e-19
-4.87388e-19
3.56813e-20
1.89312e-19
-9.31736e-21
-3.16314e-19
-2.22075e-19
-7.33357e-19
-3.41783e-19
-1.29631e-18
3.83214e-19
6.76782e-19
1.54145e-18
-2.1631e-19
-1.05913e-18
1.62163e-18
7.89389e-21
-2.57411e-18
-1.48992e-18
3.40827e-18
1.85579e-18
1.54777e-19
1.07437e-18
1.3074e-18
-1.45147e-18
6.29698e-19
-1.21475e-18
-3.29278e-18
-8.94206e-19
8.0016e-19
6.02397e-19
1.16572e-18
1.37385e-18
1.20191e-19
-8.10862e-19
-2.47517e-19
-3.43072e-19
-6.35606e-19
-1.09958e-18
-2.66126e-19
-3.51218e-19
-5.19672e-20
-8.89184e-19
1.6987e-19
-1.67733e-18
3.4298e-19
4.2309e-19
6.51513e-19
3.66438e-20
-3.92751e-21
-3.60426e-19
3.53712e-19
-1.2473e-19
3.68162e-19
3.96117e-19
-7.35161e-19
-3.00569e-18
2.2923e-18
1.72714e-18
-3.50585e-19
-9.75249e-19
-6.00553e-18
-2.94532e-18
4.97207e-18
6.1877e-18
-4.52829e-18
1.64133e-18
-4.78322e-18
-7.88073e-18
1.46541e-17
-3.12713e-18
4.63695e-19
1.438e-17
-1.38833e-17
-1.25339e-17
1.95891e-17
2.00728e-17
4.93394e-18
2.64448e-18
8.47972e-18
-5.91711e-18
7.11451e-18
6.88456e-19
-6.87813e-18
4.18673e-18
6.68897e-18
9.92932e-18
-1.16139e-17
1.33976e-18
3.18444e-18
-5.59631e-18
8.71126e-18
3.51401e-18
-3.72933e-18
-1.18404e-18
3.54829e-18
-1.96987e-18
-1.82502e-18
8.69276e-19
8.75144e-19
7.00496e-19
-3.43048e-20
5.92923e-21
5.60101e-19
-6.44804e-20
-1.01366e-19
1.01503e-18
-3.65807e-19
-1.67947e-18
2.14319e-18
-1.76518e-18
4.42952e-19
5.42192e-19
-3.45151e-18
-3.88979e-19
-1.73517e-18
-5.88313e-19
1.89511e-18
-4.92598e-19
2.99941e-19
-4.34747e-18
-1.74209e-18
-2.9894e-18
3.88998e-18
3.23037e-18
3.82607e-18
-1.6277e-18
3.95002e-18
1.87774e-18
-3.53606e-18
2.95709e-18
7.8797e-19
5.50092e-18
-4.88543e-19
4.56713e-19
-6.09686e-19
-6.16375e-19
-1.63467e-18
1.89484e-18
-1.13881e-18
-2.14932e-18
-1.76469e-18
3.18794e-19
3.29311e-19
7.6336e-19
1.6789e-19
2.14114e-20
6.99442e-19
-9.16031e-19
3.58064e-19
-8.22127e-20
2.48858e-18
3.83506e-18
-1.06404e-18
1.18306e-18
6.73569e-18
-2.17115e-18
6.55648e-18
1.53163e-17
-3.12073e-18
-2.06215e-17
1.76103e-17
1.99846e-18
1.94646e-17
9.72811e-18
1.19529e-17
8.74106e-18
-1.66595e-18
-2.56564e-18
2.45742e-17
-1.20392e-18
6.97345e-18
-4.6966e-18
1.3256e-19
6.74576e-18
4.44584e-19
-1.51538e-18
-8.09868e-18
1.70042e-19
4.14796e-18
-7.79492e-18
-7.98256e-18
8.71379e-18
3.64173e-18
-1.65951e-18
-7.57189e-18
-7.68908e-18
9.9605e-19
-2.40372e-18
3.62551e-18
-1.27346e-18
1.00012e-18
1.75306e-18
-8.55217e-19
1.36007e-18
-1.87684e-18
-9.37163e-20
1.11207e-18
7.99917e-20
2.19382e-19
-8.47033e-21
2.83756e-19
3.4686e-19
1.76733e-18
8.39952e-19
5.48867e-19
1.9442e-18
-4.70353e-18
5.54367e-19
-6.22054e-18
-4.60074e-18
-1.2146e-18
-1.73645e-18
5.85085e-18
-4.59595e-18
-5.60571e-18
-4.84611e-18
3.60062e-18
4.14864e-18
6.38259e-18
4.32855e-18
-1.22956e-17
-4.44373e-18
-2.21107e-19
4.30299e-18
-1.20437e-19
6.25561e-18
9.81974e-19
3.58805e-18
2.50531e-18
-2.738e-18
-3.22708e-18
-2.09965e-18
-2.71079e-20
9.83889e-19
1.65377e-19
-6.04816e-19
-1.67631e-18
-1.17548e-18
-4.46383e-19
3.65668e-20
4.70417e-19
-2.69557e-20
-1.74213e-20
3.89311e-19
9.17311e-19
-2.08316e-18
-1.78259e-18
1.62079e-18
-2.08355e-18
1.45233e-18
-4.30053e-18
-6.31116e-19
-5.00695e-18
-5.5889e-19
5.76854e-18
-3.79741e-18
-2.9888e-18
1.08506e-17
7.49527e-18
1.67361e-17
-1.83444e-17
-4.12164e-18
-9.84588e-18
1.68943e-17
-6.91024e-18
-5.93585e-18
-8.25225e-18
-2.93915e-18
1.24367e-17
6.92992e-18
-4.45087e-18
1.08398e-17
8.60143e-18
2.00718e-17
1.6188e-19
-1.22711e-17
1.00684e-17
2.22836e-18
-1.91179e-18
-3.47141e-18
6.05965e-18
2.63875e-18
2.69216e-18
-1.34002e-18
-3.3631e-18
-9.94577e-19
-1.56929e-18
4.88336e-19
8.85861e-19
2.09967e-19
5.01073e-19
1.44577e-18
6.0727e-19
2.69727e-19
8.4923e-19
-4.16876e-19
1.01856e-19
4.23516e-22
5.40407e-19
1.16636e-18
-9.39783e-19
1.54848e-18
2.92743e-18
-5.85127e-18
4.89787e-19
9.68943e-19
-2.15334e-18
1.29962e-18
1.08535e-18
-9.81778e-18
-1.09653e-17
-7.13877e-18
-1.11131e-17
1.97143e-17
8.42553e-18
-7.41125e-18
-7.38518e-18
4.93465e-18
5.87241e-18
-8.52213e-18
-4.97676e-18
-3.55132e-18
1.4436e-17
4.98702e-18
-3.91532e-18
7.07328e-18
-6.21956e-18
5.10939e-18
-6.56877e-19
-1.23964e-18
-1.93132e-18
2.38074e-18
1.65471e-18
1.62866e-18
5.12394e-19
5.52769e-19
8.1154e-19
4.07604e-19
-5.22083e-20
-2.38721e-21
2.78471e-20
-6.80672e-19
1.95987e-18
-2.99521e-18
-9.43573e-19
2.92295e-18
-5.27221e-18
2.14821e-18
-5.214e-18
4.14452e-20
-7.23034e-18
4.44654e-18
-6.89662e-18
1.29367e-17
-3.35315e-18
3.09435e-18
-1.16741e-17
3.81289e-18
-3.46475e-18
-1.08534e-17
-2.30639e-17
-4.50904e-18
-9.33141e-18
-6.69352e-18
8.41955e-18
-5.52766e-18
8.6208e-18
-8.05317e-18
7.42901e-18
4.73037e-18
6.11718e-18
-3.38938e-18
4.10296e-19
1.85335e-18
4.48067e-18
4.19058e-18
-5.81143e-18
2.04767e-18
8.20344e-18
1.07395e-18
2.63106e-18
-2.05864e-18
1.1758e-19
-3.24016e-19
-9.58183e-19
1.89326e-18
-4.98455e-19
-1.4091e-18
-4.27606e-19
1.32968e-18
-3.06451e-19
-6.79069e-19
8.93051e-19
-1.72729e-19
-2.66776e-19
-1.35525e-20
-3.998e-19
1.36372e-19
1.22396e-18
-6.0889e-18
3.67072e-18
-4.70289e-19
-6.33505e-19
1.89976e-18
-1.32276e-18
6.49245e-18
2.49296e-18
-7.15252e-18
-3.06984e-18
-1.657e-18
1.68788e-18
1.73275e-17
-4.90805e-18
4.88595e-18
4.72066e-18
1.78327e-17
7.25937e-18
9.823e-18
-5.10105e-18
-1.06018e-17
9.24652e-18
4.74639e-18
1.00778e-17
7.27663e-18
2.81309e-18
-1.83907e-18
4.72703e-18
3.86763e-19
1.07707e-18
6.32093e-19
-1.49057e-18
-3.90784e-19
-5.5151e-19
2.59831e-19
-2.94323e-19
5.81831e-20
1.97283e-19
1.66564e-19
2.9026e-19
3.92392e-19
-1.75543e-19
-3.08569e-18
-2.91978e-18
1.8127e-18
-6.87561e-19
-1.2585e-18
2.68206e-19
1.80193e-18
1.51158e-17
-8.14884e-18
2.12993e-18
5.88403e-18
6.9981e-18
-4.22627e-18
-8.87293e-18
3.09341e-18
-4.42418e-18
5.28135e-18
-1.09622e-17
-8.62188e-18
1.26811e-18
5.22403e-18
7.40703e-19
-2.19725e-18
6.00888e-18
-9.08198e-19
-1.64328e-18
4.50473e-18
5.17435e-18
4.02077e-18
-4.43099e-18
6.75745e-18
-1.35914e-18
8.99754e-19
4.27509e-18
1.92465e-18
2.76997e-19
8.9802e-19
-2.76389e-19
-1.81449e-18
-1.66324e-18
-1.71558e-18
-8.01685e-19
1.25416e-19
2.94935e-19
7.78922e-19
-1.10041e-19
1.28023e-19
-2.01904e-19
2.65608e-19
1.26473e-19
1.53531e-19
-1.11544e-19
7.10052e-21
-5.45701e-19
1.3002e-19
-9.7917e-19
-2.35729e-18
-1.98799e-18
1.95421e-18
-5.79688e-20
-3.83092e-18
4.13001e-18
-1.74073e-18
-3.54865e-18
9.60438e-19
-3.29182e-18
5.55438e-18
-2.0259e-18
9.90162e-19
-7.72298e-18
8.00537e-18
-1.41276e-17
-1.37864e-17
4.96308e-21
-5.33313e-19
-1.06762e-18
3.87179e-19
-1.73686e-18
7.93335e-19
1.76755e-18
6.05356e-18
-3.05426e-19
-6.71115e-19
1.43863e-18
-1.68448e-18
-1.31885e-18
-1.69008e-18
-1.49183e-18
2.85703e-19
-1.79372e-19
2.4161e-19
4.09602e-19
-3.79814e-20
-6.19311e-20
-2.29572e-19
-6.45118e-20
1.54855e-18
-3.76385e-19
1.98901e-18
1.10507e-19
7.80789e-19
2.76833e-19
-9.59801e-19
-2.38901e-18
-4.89251e-18
5.66318e-18
-3.21249e-19
-5.19402e-19
2.09339e-18
-4.89584e-18
-5.39445e-18
-4.64078e-18
1.07158e-18
-6.60179e-18
1.02496e-17
-3.06201e-18
7.82805e-18
-2.93605e-18
3.61534e-18
-9.96965e-20
6.93089e-18
-8.29301e-19
-7.20728e-19
-9.27112e-20
3.02274e-18
6.39062e-19
-1.39581e-18
-2.88895e-18
-1.26751e-18
1.65414e-18
1.85444e-19
-1.9669e-18
-1.938e-18
2.62554e-19
-2.00716e-18
-6.56722e-19
-2.08171e-19
1.02647e-18
1.23189e-19
-8.13683e-19
-1.40716e-19
-2.77039e-19
-4.65723e-20
-3.93092e-19
-1.45551e-19
2.73905e-19
6.36462e-20
-4.72568e-21
2.81771e-20
-4.5528e-21
7.21765e-20
3.86697e-19
7.68682e-19
1.39718e-18
9.35971e-19
-5.76829e-19
-3.18908e-18
-5.12349e-19
-1.84099e-18
4.68029e-18
-4.05517e-18
-6.89718e-19
4.67962e-18
-1.57081e-18
-1.76296e-18
4.35093e-18
8.27309e-18
-5.47916e-19
-1.67504e-17
6.21369e-18
-7.22917e-18
-2.00794e-18
-9.65421e-18
-4.84502e-18
5.3789e-18
-3.74489e-18
3.51247e-18
-8.90013e-19
-2.31449e-18
-6.09967e-18
-5.23834e-19
-7.55254e-19
7.97044e-19
-4.81658e-19
-9.22401e-19
5.99715e-19
4.22022e-19
-4.76683e-19
1.25253e-19
5.24871e-19
-2.00523e-19
-3.60138e-20
-1.30513e-19
-6.04038e-19
-6.92205e-20
2.0283e-19
-1.05255e-18
1.93079e-18
1.267e-19
1.40276e-18
3.17451e-20
3.55645e-18
-3.17292e-19
2.06892e-18
-3.79653e-18
7.87102e-19
-6.35998e-18
-8.30175e-19
-2.80412e-18
-5.12453e-18
-1.7446e-18
-1.58151e-18
-8.4671e-19
8.0747e-19
7.12673e-20
-1.77257e-18
6.27232e-19
-1.74912e-18
-2.58301e-18
-3.93157e-18
2.48441e-18
5.06067e-19
-2.41046e-18
-2.87869e-18
2.90297e-18
-1.39136e-19
-1.96876e-20
1.62184e-18
1.11375e-18
1.3823e-18
-7.49412e-19
-9.71088e-19
9.71502e-19
5.53091e-19
-1.27531e-18
-1.6094e-19
3.96584e-19
-3.81874e-19
-1.65313e-19
1.90319e-19
-2.19358e-19
1.24585e-19
7.61941e-20
-3.50137e-20
-3.52881e-20
2.76266e-20
1.96426e-20
-1.51539e-21
4.72618e-20
3.13733e-20
1.75895e-19
-4.71956e-19
7.87741e-20
-1.91091e-18
-1.78809e-18
1.28029e-18
4.91163e-18
-1.06136e-18
1.6381e-18
2.04466e-18
5.20005e-18
5.21531e-18
-1.99365e-18
3.76305e-19
-3.52988e-18
4.42346e-18
-1.76779e-17
2.60488e-18
-1.71041e-17
-6.19596e-19
-2.83176e-18
3.90622e-19
-6.63116e-18
-4.13358e-18
4.73239e-18
-3.61e-18
-9.2787e-19
-2.1023e-18
-1.04955e-18
-2.14784e-19
-2.2362e-18
-2.94174e-18
4.26059e-19
-5.81177e-20
-1.87185e-19
8.06394e-20
-6.46086e-20
1.22997e-19
-2.26796e-20
-2.53422e-20
4.84545e-21
-2.34804e-19
-3.89584e-19
-1.30379e-19
1.37387e-18
3.91631e-19
3.49703e-19
-8.54735e-19
3.7129e-18
-2.70764e-19
4.9769e-20
1.00003e-18
-1.92847e-18
-3.56536e-18
-1.87303e-18
1.28139e-18
3.06622e-19
1.0885e-18
-6.98557e-19
-1.90563e-18
-8.26126e-20
2.03908e-18
1.03364e-18
-1.4449e-18
-1.74421e-18
7.68985e-19
4.55765e-19
6.35084e-19
1.41379e-18
4.00299e-19
-5.53053e-20
4.0245e-19
4.46231e-19
-8.44796e-19
-9.49839e-20
-9.12127e-19
6.23219e-19
-3.36041e-19
1.51504e-19
-2.50027e-19
8.22595e-19
-1.71005e-19
-6.8587e-20
-1.83797e-19
1.57506e-20
-1.31987e-20
-1.81868e-19
2.0318e-19
8.47306e-20
2.76564e-20
9.76037e-20
4.3043e-20
6.90654e-21
2.54255e-21
-2.58825e-21
-3.92911e-24
3.15586e-20
8.81444e-21
1.14813e-21
6.13255e-19
-3.22137e-19
3.90482e-19
6.31887e-19
-1.64324e-19
8.9489e-19
3.96835e-19
2.83453e-18
9.73691e-19
6.84022e-19
1.66537e-18
3.72917e-19
-4.61014e-18
-1.31893e-18
5.25276e-19
6.09467e-19
1.0168e-17
-1.08129e-18
8.79849e-18
8.72034e-19
2.30516e-18
2.03059e-19
-5.77434e-18
-1.71143e-18
-1.38186e-18
-7.32476e-19
-1.05149e-18
2.36898e-18
-1.05459e-18
-4.16894e-19
-1.23125e-18
-3.68348e-19
6.15053e-19
-2.02536e-19
1.76943e-19
1.68222e-20
3.21856e-20
-3.90516e-20
3.48861e-20
2.3554e-22
-1.48077e-20
6.87069e-20
-7.16533e-20
1.35809e-19
2.67008e-19
5.82823e-20
-1.14056e-18
-9.1315e-19
2.25792e-19
-2.41061e-19
-5.61903e-19
5.18678e-19
-1.5401e-18
5.70443e-19
2.92022e-19
-1.38533e-18
8.62188e-19
2.82267e-21
1.81152e-18
-9.91206e-19
-4.87417e-19
-5.79903e-19
-7.3037e-19
-2.91547e-19
-4.86208e-19
1.74477e-20
7.18461e-21
3.39967e-20
-2.62679e-19
9.5748e-19
-2.34378e-19
-1.1458e-19
5.98433e-19
-3.65771e-20
1.90436e-19
5.56544e-20
5.77967e-20
1.35431e-20
9.673e-20
-1.91957e-19
-2.23827e-19
-2.51251e-21
-1.07727e-19
-5.84167e-20
-1.12063e-19
-1.00664e-19
3.77968e-20
6.67721e-21
2.62061e-20
1.27663e-20
-5.81001e-21
-1.87718e-20
7.80238e-22
-5.84196e-23
1.59356e-21
1.41266e-20
3.85466e-22
-5.76313e-20
5.33366e-20
2.40407e-19
-2.36693e-19
-7.59153e-19
1.39252e-18
-4.6968e-19
-1.11258e-18
-7.17172e-19
4.76516e-19
7.79053e-19
3.94095e-19
-1.35829e-18
1.00096e-18
-1.29636e-18
-4.23955e-18
-1.70523e-18
-1.76184e-18
-2.27564e-18
-2.88638e-18
1.47537e-18
-1.28929e-18
-1.18301e-18
-1.94909e-18
-2.31175e-19
1.56121e-18
-1.2504e-18
6.0353e-20
3.94137e-19
6.66488e-20
1.03377e-18
4.6709e-19
1.30874e-19
-2.78807e-19
2.91621e-19
2.04534e-19
7.45507e-20
-7.8667e-20
5.42442e-20
-5.29005e-20
2.71964e-20
-1.72881e-22
-5.20656e-20
7.27977e-20
2.43214e-19
-1.81533e-20
-1.32311e-19
-3.82073e-19
9.27829e-20
3.29318e-19
-5.28082e-19
4.25737e-19
-9.86714e-20
3.40181e-20
4.94922e-19
-4.00206e-19
5.88805e-19
6.65839e-20
6.48229e-19
-8.86033e-20
6.49701e-19
-8.9998e-20
4.11408e-19
-4.14008e-20
2.90208e-20
1.55269e-19
-1.96613e-19
5.49146e-20
1.18485e-19
-7.18288e-20
-7.08188e-21
3.82005e-20
7.77233e-20
2.87757e-20
1.571e-20
-3.88592e-20
9.11025e-20
-2.76871e-20
-7.28721e-20
-9.06553e-21
1.62295e-20
1.66636e-20
-2.32439e-21
4.20356e-20
2.55727e-20
4.43979e-21
4.93199e-21
-2.90073e-20
-5.18995e-21
1.03588e-20
-7.79843e-21
1.41626e-21
3.69589e-21
-2.39174e-21
2.48154e-24
3.04118e-23
-2.47668e-21
1.05501e-20
2.32967e-20
4.79599e-20
1.60939e-19
1.57412e-20
-3.28675e-19
-2.89897e-19
-7.96211e-20
2.94344e-19
-1.38808e-19
9.81685e-19
1.495e-18
2.31464e-18
2.06503e-19
1.13592e-18
-3.0427e-18
-1.39184e-18
-9.10716e-19
-1.93929e-18
2.16072e-19
2.20978e-18
-1.05664e-18
-1.27331e-18
-4.71838e-18
-1.75929e-18
4.14441e-20
1.55152e-18
-1.07696e-18
7.60842e-19
-2.76702e-19
8.06764e-19
4.2916e-19
8.52504e-19
3.07288e-19
3.27017e-19
-3.56255e-19
-4.88913e-20
-1.79136e-20
9.39723e-21
-3.77215e-21
-8.4855e-21
1.14654e-20
1.71503e-21
-4.26541e-21
-3.54774e-20
-2.2838e-20
-6.45904e-21
-1.59589e-19
1.03306e-19
-2.62553e-20
-1.02636e-19
2.79342e-20
-5.09348e-20
1.95487e-19
1.51107e-19
-1.20617e-19
1.03675e-19
-7.58351e-20
-2.74305e-19
-7.48832e-21
-1.263e-19
-4.18906e-20
-1.47953e-19
-5.36427e-20
-1.39958e-19
7.83307e-20
-1.24487e-19
4.346e-20
2.26341e-20
4.75502e-21
-3.3482e-20
-7.90495e-21
2.39405e-20
-1.35254e-20
-6.41067e-20
-5.14911e-20
-3.20606e-20
8.84105e-21
1.25155e-20
-7.01885e-21
7.2361e-21
7.71887e-21
-8.44757e-21
1.10196e-20
-5.40828e-21
-1.5731e-20
-9.19667e-21
3.03902e-21
5.78219e-21
6.24462e-21
2.79765e-21
2.49133e-21
5.10978e-23
4.39052e-22
-4.26976e-23
4.7864e-22
-1.00425e-21
-2.01522e-22
-3.13962e-21
8.59151e-21
-1.29768e-20
1.27882e-20
-5.37254e-21
-1.456e-19
-1.78896e-19
-3.00167e-19
-1.76183e-19
-1.20067e-19
-8.16328e-20
-6.09228e-19
1.26501e-18
-2.11293e-19
-3.97651e-19
4.77771e-20
9.16366e-19
-2.56017e-18
-7.74659e-19
7.07942e-19
5.04174e-19
-6.89724e-20
1.27782e-19
5.46428e-19
1.02744e-18
-8.17823e-19
-3.44532e-18
6.84692e-19
3.55781e-19
-6.79831e-19
-6.96905e-19
3.85428e-19
3.30594e-19
-3.0405e-19
3.39723e-19
-1.49586e-19
2.01078e-19
5.32696e-20
2.99011e-20
2.62836e-21
-9.20429e-21
9.80219e-21
-2.57311e-20
-3.98929e-21
-2.33265e-22
-3.9867e-21
1.01364e-20
1.54446e-20
-1.51615e-20
4.29332e-20
1.87196e-20
1.77923e-20
-5.90473e-21
4.15082e-20
7.82636e-20
-5.12025e-22
9.92967e-20
1.45858e-19
3.88739e-20
-9.06638e-20
9.23547e-20
-3.82486e-20
3.91695e-20
-1.84656e-21
5.1118e-20
-7.63342e-21
-1.28304e-20
-1.04674e-20
-1.97254e-20
-1.98375e-20
2.05852e-21
8.09444e-21
-5.30579e-21
1.39474e-21
2.40668e-21
-6.38274e-22
-3.60055e-21
8.63016e-22
3.5335e-21
-5.08823e-21
1.192e-21
1.26017e-21
5.50791e-22
-2.2465e-21
-3.747e-22
-1.03877e-21
1.44637e-21
-1.46739e-22
-2.98849e-22
2.2764e-22
-3.63249e-23
-2.71419e-25
1.80758e-22
8.56003e-23
7.06748e-22
-3.13708e-22
1.76133e-21
1.58452e-21
-1.1808e-22
1.9105e-22
2.7847e-21
-4.10902e-22
1.23043e-20
-2.67167e-20
-1.38321e-20
1.75627e-20
4.33787e-19
-1.07997e-19
-2.5898e-19
-1.85288e-19
5.34822e-20
2.48065e-19
-6.78673e-20
2.6042e-19
-4.36012e-19
3.16678e-20
9.11508e-19
4.7303e-19
5.80215e-19
-1.08625e-18
1.24928e-18
1.08492e-18
-9.03053e-20
-7.59006e-19
7.9667e-19
2.50313e-19
-3.56961e-19
4.25998e-19
-2.00613e-19
1.57083e-20
-2.87068e-19
1.0666e-19
-3.47854e-20
2.03581e-20
1.04217e-19
-1.44751e-20
-3.11015e-21
4.74926e-21
1.34869e-20
-8.7333e-21
-7.1014e-21
-1.16947e-20
4.75722e-21
2.15894e-21
-1.47703e-22
-4.43547e-21
-1.38924e-21
2.9912e-21
1.92856e-20
-1.28399e-20
-9.41709e-21
-4.40814e-20
7.86451e-21
-1.30166e-20
1.68208e-20
-7.07212e-21
-1.65451e-20
1.84769e-21
-4.71292e-21
-1.15631e-20
8.78808e-22
8.49754e-21
-2.43881e-21
-8.13184e-23
-3.05117e-22
-2.97967e-21
-4.77251e-21
1.78427e-21
1.53822e-21
-1.05694e-22
-1.10948e-21
-4.29343e-22
7.3099e-22
6.01457e-23
2.88039e-22
-6.92554e-22
3.51828e-22
4.90484e-22
1.74872e-22
-1.30179e-22
4.54148e-23
9.71287e-23
1.03797e-23