/*--------------------------------*- C++ -*----------------------------------*\
| =========                 |                                                 |
| \\      /  F ield         | OpenFOAM: The Open Source CFD Toolbox           |
|  \\    /   O peration     | Version:  2006                                  |
|   \\  /    A nd           | Website:  www.openfoam.com                      |
|    \\/     M anipulation  |                                                 |
\*---------------------------------------------------------------------------*/
FoamFile
{
    version     2.0;
    format      ascii;
    class       volScalarField;
    location    "20000";
    object      I2_30;
}
// * * * * * * * * * * * * * * * * * * * * * * * * * * * * * * * * * * * * * //

dimensions      [0 0 0 0 0 0 0];


internalField   nonuniform List<scalar> 
14751
(
-1.29216e-65
-4.29423e-56
5.15825e-53
1.95643e-52
4.56353e-53
1.15534e-55
9.09588e-55
1.04833e-53
4.15019e-55
3.88296e-58
3.29293e-55
1.40045e-57
1.4056e-55
4.02644e-57
1.80101e-53
-4.93828e-57
2.81984e-54
1.08822e-56
6.70109e-58
2.38392e-57
2.58261e-56
2.36629e-58
2.66479e-57
1.94654e-57
1.41795e-56
6.82206e-57
-5.66315e-61
1.91676e-58
7.46847e-57
2.91477e-58
2.86898e-57
1.23819e-57
6.3619e-61
7.91326e-58
4.2534e-59
2.14232e-58
5.62011e-59
-6.42605e-63
-1.70303e-62
-1.95584e-64
-1.07651e-58
5.25807e-55
-5.58064e-59
3.00513e-56
-7.558e-60
-1.13549e-59
2.74563e-56
-9.65089e-60
-1.62547e-67
-1.25394e-59
2.62959e-56
-1.24339e-59
1.18194e-60
1.35457e-60
6.3511e-60
6.16209e-60
-1.69064e-59
3.06635e-56
3.29974e-56
5.71835e-55
-4.13506e-58
-2.68576e-57
2.75112e-54
-1.63174e-57
5.12389e-58
-2.89056e-58
2.57988e-55
-7.37855e-58
7.55595e-56
6.45503e-56
9.41137e-56
-6.48989e-59
7.46844e-57
2.07483e-56
1.28456e-55
1.9602e-57
1.41361e-56
1.60273e-56
-8.75806e-58
1.2061e-54
1.65917e-54
1.29152e-54
5.70423e-57
-3.08333e-57
2.35191e-54
3.79159e-54
3.03104e-54
-3.72301e-57
0
-2.34258e-56
1.95115e-53
5.02375e-57
1.22576e-55
6.50231e-57
5.54499e-57
7.90438e-57
2.50435e-54
-2.00058e-57
-6.44641e-61
-1.50618e-47
3.44585e-46
-1.71872e-47
2.54748e-48
-5.76816e-49
-1.62525e-46
4.71101e-45
-5.36651e-46
3.99549e-45
-5.82574e-49
3.29034e-45
-2.67052e-46
2.52345e-45
-5.26229e-47
1.64286e-47
-1.47163e-48
1.28996e-47
-1.84392e-48
2.00648e-46
-7.09159e-50
-2.35019e-48
1.54279e-46
1.63702e-46
1.6856e-46
-3.84993e-49
-1.20582e-50
-5.48061e-49
6.89361e-47
-3.93113e-49
1.38528e-49
1.16217e-49
-6.36453e-50
8.14269e-48
8.29192e-48
2.14724e-50
7.00636e-48
7.30224e-48
-8.40454e-50
1.66003e-50
3.73756e-51
-7.89057e-53
1.93781e-52
-6.52739e-54
2.56291e-52
-9.06301e-51
3.54035e-49
4.33391e-50
6.98089e-50
-2.04449e-51
-1.4498e-52
3.658e-51
-3.41112e-52
8.81437e-52
-5.57649e-52
3.69975e-51
6.27162e-52
-1.89053e-52
3.77401e-52
-3.35042e-51
5.01859e-50
-4.5918e-51
-8.9343e-49
1.05749e-47
6.15669e-48
9.87314e-48
-1.24896e-48
1.20059e-49
1.20504e-49
-1.21497e-48
1.76456e-47
-2.62431e-48
-8.02736e-48
7.62e-47
9.90271e-47
-1.0709e-47
-1.62308e-47
1.31314e-46
1.39827e-46
-1.23354e-47
-1.37203e-47
2.28254e-46
-1.63939e-47
2.48567e-48
1.37387e-47
-1.70161e-46
1.62788e-45
-1.51959e-46
1.23998e-48
-3.99568e-49
4.02386e-49
-2.06736e-46
3.1698e-45
-2.43045e-46
2.06447e-48
-6.50693e-47
1.08206e-45
-6.78063e-47
4.33127e-50
-4.14944e-51
-3.1025e-43
1.76694e-43
-3.12041e-43
-1.71093e-41
-9.39966e-43
1.16104e-41
-1.2369e-41
-1.40033e-41
-5.69613e-42
6.74415e-42
-4.85812e-42
-1.24927e-45
3.94634e-42
-7.84953e-43
1.21058e-41
-4.04379e-42
-1.51666e-44
-1.72325e-43
3.18853e-43
-2.96774e-44
-1.05402e-43
1.3679e-43
-1.18245e-42
3.26449e-42
5.94567e-43
3.47081e-44
1.51443e-42
-2.96094e-44
-2.744e-44
-1.74299e-43
5.26633e-43
4.42067e-43
1.05842e-43
1.02552e-44
-4.24013e-44
8.31999e-45
8.08262e-45
1.08434e-43
-4.61016e-44
-1.22177e-46
-1.28471e-47
8.00807e-46
-1.20047e-44
-1.55938e-45
-9.11429e-45
-1.65169e-44
-2.36037e-45
1.34797e-46
-2.81185e-46
-5.8351e-46
3.45094e-46
-4.52533e-46
-1.01372e-44
3.23729e-45
-1.80264e-44
1.71154e-44
-6.78143e-44
-8.94492e-46
-1.26894e-45
-1.96819e-45
-3.69046e-43
8.19144e-46
-9.99191e-43
-5.35937e-43
-9.13469e-45
-1.36236e-42
2.13653e-43
-3.25223e-42
-4.04965e-42
-2.21015e-42
-1.73174e-41
-8.20806e-43
-5.03024e-43
3.72886e-44
-1.1188e-42
-1.99112e-42
-1.05368e-41
-1.00617e-42
-1.58658e-41
-8.7583e-43
-3.04922e-41
-8.88416e-42
-2.26436e-41
-2.87862e-41
-6.43729e-42
1.60309e-42
-9.39312e-42
3.26728e-44
-1.71855e-43
-3.47536e-41
-5.22677e-43
-1.13355e-40
-5.56267e-41
-2.13511e-41
-3.78854e-41
-5.65492e-42
4.425e-43
-5.87718e-42
-3.97155e-50
-8.08634e-44
-1.7529e-38
2.40799e-37
2.88222e-37
2.94362e-37
3.02769e-37
1.15077e-36
1.33839e-36
1.33662e-36
3.60327e-37
3.6211e-37
-1.27404e-38
-7.85113e-42
-9.44563e-39
3.65586e-37
-9.07647e-39
-2.31748e-38
1.18347e-36
9.32001e-37
1.24021e-36
-1.2346e-38
5.55732e-39
1.03533e-36
1.61776e-37
4.27305e-38
-1.78904e-39
5.03657e-37
-4.62833e-39
9.3832e-40
-4.76893e-39
4.4096e-37
4.59166e-37
3.04101e-38
8.16584e-39
-5.79581e-41
4.24746e-38
4.23531e-38
7.27563e-39
-1.40727e-40
3.79598e-38
-8.62929e-40
-2.14093e-40
9.61311e-39
2.05325e-39
-1.05295e-40
9.56538e-42
2.26169e-41
1.3993e-42
-6.72884e-44
-3.09092e-42
-1.05822e-41
5.92165e-40
-2.24085e-40
6.07994e-40
-9.45541e-41
2.80897e-39
-1.12906e-40
-1.29263e-39
6.34212e-39
3.73902e-38
-1.7946e-39
8.48095e-39
-6.69054e-39
2.48479e-40
5.35343e-38
1.24279e-38
4.66012e-38
-9.88033e-38
1.66375e-37
4.81016e-38
-2.83359e-39
4.42683e-38
-1.46933e-38
-2.58922e-42
-1.70048e-43
-1.64833e-43
-8.9586e-38
3.45109e-37
-8.34365e-38
-2.29236e-37
1.0133e-36
-1.14363e-36
2.20829e-36
-4.73001e-37
1.07968e-39
-1.75296e-37
9.31058e-37
-1.63303e-37
-1.95532e-37
9.71685e-37
1.03599e-37
-1.66223e-37
2.30917e-37
-2.02969e-38
8.33052e-37
1.84046e-37
5.46499e-38
5.28841e-38
-5.63003e-39
-7.52629e-41
-7.41656e-37
1.52127e-35
1.60527e-35
-5.96398e-36
5.32801e-35
7.14955e-34
7.01316e-35
8.88679e-35
9.25468e-35
9.3399e-35
-2.31093e-36
-6.23176e-36
4.36205e-34
-8.07374e-36
3.82464e-37
4.89786e-37
1.26215e-34
1.12051e-34
-6.86745e-37
2.32152e-42
-3.47367e-36
4.68127e-34
-3.22701e-36
5.068e-37
2.0086e-37
2.89693e-35
9.38105e-37
-1.02258e-36
1.28619e-34
1.26892e-34
-1.00387e-36
9.67658e-38
-5.79567e-40
-6.3237e-38
7.31211e-36
6.94909e-36
7.14146e-36
-9.59495e-38
2.67051e-35
-3.83413e-38
6.97916e-36
1.61774e-36
-8.03664e-38
5.03724e-37
1.48634e-36
3.77395e-37
4.55314e-37
-1.52428e-38
-3.22137e-39
8.19402e-38
1.05603e-37
3.83248e-37
-1.9311e-38
-1.00153e-37
1.06023e-36
5.35722e-36
5.18644e-36
1.47048e-36
5.05728e-36
4.41843e-36
-5.22563e-37
-3.1061e-36
2.30865e-35
4.02212e-36
-6.87717e-37
-3.54407e-36
1.73787e-35
1.70735e-35
-3.72155e-36
7.39701e-35
-1.72498e-35
1.13761e-36
6.10149e-38
-5.17255e-38
-1.24586e-35
6.03164e-35
-4.63609e-35
5.49462e-35
3.87852e-37
6.42162e-35
1.76676e-35
6.30949e-35
-1.16122e-35
5.80337e-42
-1.03767e-35
3.01392e-35
2.3621e-34
-8.01052e-35
6.46827e-35
-6.65674e-35
2.37376e-34
-2.58368e-35
-2.14601e-35
2.40789e-34
1.10201e-35
5.75184e-35
-2.07976e-37
-2.32009e-37
-3.42003e-36
2.09447e-35
-3.48833e-36
-1.12998e-35
2.78354e-35
1.21977e-33
3.66497e-34
7.56986e-34
-4.54293e-35
2.53809e-38
7.93242e-38
-2.37028e-35
1.44863e-33
1.46063e-33
-3.22887e-35
2.35522e-36
-2.02581e-35
2.25842e-33
2.65991e-33
5.3699e-33
-4.28322e-35
-1.37108e-37
5.48006e-34
-2.11716e-36
1.39521e-36
-4.1079e-36
6.54074e-34
4.9503e-34
6.27846e-34
5.32782e-34
1.33891e-34
1.37077e-34
5.06538e-34
-2.82659e-36
-3.45286e-39
1.92665e-39
1.11145e-39
-1.2407e-36
1.205e-34
2.9028e-35
1.15336e-34
-1.62087e-36
-5.67999e-40
2.45859e-38
-1.5354e-37
6.29626e-36
8.28301e-37
5.93582e-36
1.74111e-37
-5.63504e-38
3.37725e-37
-1.5884e-38
1.24917e-36
-6.87568e-38
-3.41805e-36
3.78912e-35
1.6781e-35
5.86253e-35
-2.7688e-35
5.47874e-35
-1.96472e-35
3.20375e-35
5.01276e-35
4.16774e-35
-9.95921e-36
1.27126e-38
-9.02397e-35
2.86227e-34
3.13936e-35
-4.26295e-34
5.31429e-34
-8.066e-35
-4.63362e-35
6.34691e-41
8.25958e-41
-4.40201e-34
6.91512e-34
-6.96182e-34
-1.41211e-34
1.27089e-34
-1.06901e-33
4.18497e-34
-3.99265e-34
-1.36664e-36
6.25268e-37
3.57534e-37
-5.57747e-34
3.2744e-34
-4.40904e-34
-1.14237e-34
-1.02961e-34
1.42799e-34
-1.0288e-34
-2.2071e-35
-4.3147e-35
1.13362e-34
1.93165e-35
-2.88218e-36
-4.04678e-36
5.85656e-36
1.13322e-35
8.05068e-35
3.31113e-34
-4.18424e-34
8.68111e-34
-6.87254e-34
2.0966e-34
-1.19451e-35
-1.64976e-34
-1.08713e-34
-1.26462e-35
-8.02428e-35
-3.01326e-35
-2.08198e-35
1.46331e-34
-1.29761e-35
9.70944e-34
2.18069e-34
2.85641e-34
-1.23191e-35
-3.72661e-37
5.84777e-37
-8.67253e-36
2.73085e-34
-1.48517e-36
5.27916e-35
4.87343e-35
6.29929e-36
1.31527e-34
-2.01374e-35
1.83987e-35
1.26288e-35
-2.34332e-36
-6.38115e-37
-1.01048e-36
2.25651e-36
-5.76176e-36
-3.89899e-37
-9.98488e-39
-2.31165e-37
-9.58665e-37
-2.81047e-37
2.64252e-39
-2.62983e-39
-5.07265e-40
-2.8165e-38
4.73195e-38
-6.71046e-39
-7.852e-38
1.25705e-37
-2.72218e-38
7.45613e-39
4.33444e-39
-9.7301e-37
4.28179e-36
-4.02253e-36
5.23738e-35
-2.52541e-35
1.90097e-35
2.39937e-35
9.93484e-39
3.03862e-35
-5.18654e-36
-2.41321e-38
-2.87814e-35
1.94537e-34
1.74122e-34
1.44599e-34
-9.46457e-35
1.26284e-34
2.22937e-34
-4.0154e-35
6.11137e-36
1.4441e-36
-1.35676e-34
1.58958e-33
-1.42783e-34
-9.05846e-35
1.85959e-33
-4.9513e-34
2.30449e-33
-1.26064e-34
-4.84827e-34
9.52337e-33
1.02623e-32
-1.01698e-33
1.2437e-33
2.0367e-32
9.36464e-33
8.24956e-33
-3.73247e-34
-1.42234e-39
-8.61742e-35
1.38049e-33
1.41275e-37
1.0583e-33
-2.82168e-35
-1.26429e-36
-2.24721e-35
9.61731e-33
2.18012e-33
3.49857e-32
3.28201e-32
7.91994e-33
-5.89912e-35
7.24198e-33
2.72322e-32
2.4551e-32
-3.81703e-35
-1.64184e-35
2.00405e-32
1.84486e-32
-4.71181e-35
3.68367e-33
-1.67542e-35
3.58729e-32
-2.75484e-35
4.76642e-38
2.01639e-39
1.38162e-42
-2.5529e-36
3.49779e-33
3.53961e-33
4.04786e-33
4.04632e-33
3.63e-33
-8.89195e-36
3.80452e-33
3.58833e-33
1.13103e-33
4.44204e-36
1.18097e-33
-6.28206e-37
2.10291e-37
1.21884e-33
2.93094e-34
1.22368e-33
-7.59441e-37
5.16512e-39
-2.74942e-37
3.79453e-34
7.85699e-38
-8.86037e-38
1.01286e-34
9.21032e-38
3.31627e-35
8.11757e-36
1.40342e-38
8.56486e-36
6.07901e-38
1.31575e-34
1.44798e-37
1.48419e-34
-2.43179e-37
-1.80324e-37
6.98153e-34
7.78909e-34
-5.61253e-37
7.30518e-34
8.60919e-34
2.08074e-36
-2.53336e-39
-3.70395e-36
3.9428e-33
2.61519e-33
1.35551e-32
1.50892e-32
-5.13725e-35
1.39408e-32
1.5418e-32
1.90661e-32
4.86085e-35
5.18512e-35
2.05669e-32
-8.08499e-35
7.31846e-32
-3.07726e-34
8.0273e-32
8.14337e-32
8.27091e-32
4.31154e-36
1.08883e-34
9.16471e-36
5.8312e-35
8.31266e-35
4.64147e-35
-9.43003e-35
7.51428e-32
1.34534e-35
7.06053e-32
-1.10113e-34
1.00821e-36
4.59051e-37
-2.44776e-35
1.23278e-32
-2.90053e-35
-1.06659e-40
4.82087e-34
-2.62353e-36
2.82723e-32
2.71969e-32
9.88009e-32
9.58635e-32
8.90393e-32
-7.17541e-36
-5.05229e-36
7.60586e-32
7.10623e-32
6.74348e-32
6.25045e-32
1.01723e-34
2.2598e-34
5.47523e-32
4.48878e-35
5.1696e-32
5.35364e-35
4.6915e-35
-2.21694e-39
1.18295e-40
-8.52932e-38
9.99229e-33
4.49202e-35
1.13664e-32
1.15392e-32
1.30683e-32
1.01828e-32
2.63898e-38
1.11385e-32
1.19906e-32
1.29055e-32
3.06426e-33
1.2582e-32
3.22037e-33
2.96692e-36
3.21598e-36
-9.31865e-38
3.53294e-33
3.6273e-33
9.35932e-34
9.63926e-34
9.30502e-34
1.02313e-33
1.02267e-33
2.72022e-34
6.58264e-35
6.96693e-38
4.0057e-38
1.86531e-35
7.94035e-35
-1.9144e-39
-1.34428e-37
3.26838e-33
1.62359e-33
1.42613e-36
-6.35946e-38
1.55781e-33
-2.633e-38
1.52082e-39
2.13217e-39
1.91273e-38
2.76075e-35
2.74433e-32
6.73679e-32
-3.00723e-36
3.11857e-32
1.28058e-31
3.07954e-32
3.56336e-32
1.37678e-31
3.53694e-32
1.43028e-34
-2.36698e-37
4.3407e-32
-1.64418e-36
6.37198e-31
-6.08973e-36
1.65005e-31
2.4836e-37
2.9779e-36
-9.88691e-37
1.75815e-31
1.87941e-31
1.6661e-31
2.52677e-35
1.85092e-31
1.74386e-31
1.71713e-35
6.95417e-31
1.69214e-31
-6.44576e-36
-7.2306e-36
1.56564e-31
3.87273e-32
-2.414e-36
3.05316e-42
-4.25056e-38
1.74472e-34
1.04871e-32
1.59713e-31
2.65815e-36
8.57836e-36
1.31843e-31
1.24616e-31
-2.29374e-38
4.01825e-37
1.0611e-31
1.0157e-31
8.07099e-37
9.26693e-32
8.90365e-32
2.32059e-37
3.18998e-31
7.72493e-32
7.95712e-32
7.28112e-32
7.00859e-35
-2.92746e-40
7.32017e-35
6.4874e-32
6.89852e-32
6.84571e-32
6.869e-32
-3.22283e-40
1.72936e-32
1.74329e-32
-1.16394e-38
6.88022e-38
-8.10678e-39
7.24499e-32
7.35821e-32
1.87185e-32
5.36082e-33
1.90652e-35
4.90721e-36
1.89787e-32
5.85451e-33
2.05572e-32
1.35453e-33
1.39184e-33
1.3399e-33
1.47585e-36
3.99866e-34
4.09647e-34
-1.70699e-42
1.04412e-34
2.55926e-38
2.66183e-35
9.5757e-35
4.38821e-37
1.83354e-33
1.87738e-33
1.80283e-33
1.91147e-36
-3.98162e-38
8.21951e-33
8.3928e-33
8.36685e-36
8.3064e-36
3.33939e-32
1.4121e-34
3.92611e-32
1.55036e-31
1.46871e-34
3.66475e-35
1.63626e-31
4.29759e-32
1.64312e-34
3.20975e-32
1.94289e-31
6.87133e-34
1.71382e-34
1.94383e-31
1.84337e-34
1.89839e-31
-7.16325e-36
1.52233e-37
1.81014e-34
2.04399e-31
1.56721e-34
2.10018e-31
-3.85043e-36
2.1555e-34
2.40451e-31
8.64356e-31
-1.55363e-35
-3.37493e-36
2.18704e-31
2.22283e-31
1.59854e-36
2.12251e-36
2.16659e-31
2.0559e-31
-1.07776e-37
4.04493e-37
2.68701e-39
1.80368e-34
-4.15363e-37
4.15733e-32
1.52791e-31
1.45602e-31
7.2411e-36
-1.94676e-37
4.21377e-37
-2.56636e-38
1.07129e-31
4.28531e-31
4.04679e-31
9.13276e-32
8.796e-35
3.62263e-31
8.8249e-32
8.52933e-32
8.36411e-32
8.25912e-32
-8.60286e-38
-5.82536e-38
7.48894e-32
7.97041e-32
3.0892e-34
3.06956e-31
-3.79723e-37
7.9521e-32
7.71841e-35
7.06606e-32
7.74607e-35
8.19936e-32
2.07602e-32
8.41826e-32
1.92166e-35
-2.45795e-38
2.3442e-32
-2.65945e-38
5.82072e-36
2.40344e-32
-4.5996e-38
-1.10827e-38
5.80025e-33
1.5776e-33
6.35289e-36
2.07543e-41
1.76206e-41
4.39242e-37
4.78638e-34
1.185e-34
-9.94365e-40
-2.15067e-38
1.8868e-33
4.80416e-34
-9.07529e-38
1.9881e-33
1.57656e-36
7.96031e-33
-2.99129e-37
3.38722e-32
8.58843e-33
-2.99532e-37
3.48024e-35
3.54057e-35
-2.63682e-39
-2.26087e-40
3.48236e-35
4.22497e-32
1.39972e-34
4.08177e-32
1.50489e-34
1.57878e-31
-1.0105e-37
1.62926e-31
-1.06746e-35
-1.17371e-35
1.71071e-31
-1.26447e-35
1.53184e-34
1.9099e-31
-3.54782e-39
1.85723e-31
-1.16621e-34
7.9164e-31
1.95168e-34
8.15895e-31
8.27406e-31
1.83077e-30
1.98554e-31
8.35113e-31
-8.24755e-35
8.53537e-31
2.14062e-31
-6.41573e-36
7.11713e-37
1.87569e-35
2.09914e-31
2.08303e-31
5.0352e-32
-7.93981e-37
5.02825e-42
-1.17433e-35
5.96314e-31
-2.88702e-35
1.32475e-31
-1.51403e-35
4.75733e-31
4.5238e-31
-4.96118e-36
2.01517e-35
3.93606e-31
-5.53579e-36
-5.93787e-38
-2.04407e-36
3.54718e-31
-8.08207e-37
1.36211e-30
3.3581e-31
3.25938e-34
3.21392e-34
-2.04644e-37
8.14041e-32
8.10662e-32
8.10939e-32
3.25161e-31
-1.82029e-36
8.19084e-32
-7.23547e-37
8.30075e-32
7.84759e-32
9.55353e-32
1.89152e-34
2.03122e-32
2.18988e-32
2.22019e-32
2.27199e-35
2.14454e-32
2.32237e-32
5.88602e-33
-2.14791e-40
6.09591e-33
5.91839e-36
2.47655e-35
6.79531e-33
1.72663e-33
1.5099e-36
1.62044e-33
4.51547e-34
1.0422e-34
-1.55503e-39
1.76331e-38
4.75569e-34
3.21673e-37
1.94424e-33
1.73034e-33
6.80428e-36
7.51546e-33
7.09532e-33
7.62493e-33
-2.06288e-37
-1.71973e-36
2.91138e-32
2.74253e-32
3.12849e-35
3.15185e-32
1.88683e-36
2.87096e-31
1.23915e-35
1.17386e-34
1.30234e-31
1.23551e-31
1.24749e-31
1.27095e-34
1.34129e-34
-1.19857e-35
1.38981e-31
5.40043e-34
-9.2359e-36
1.27101e-31
-1.22879e-35
5.59173e-31
5.68229e-31
2.46206e-30
6.26633e-31
6.16781e-31
1.86466e-34
6.59249e-31
-1.63658e-34
6.71986e-31
6.84693e-31
-1.38578e-35
8.38638e-36
-3.32252e-35
7.37675e-31
1.87597e-31
1.84045e-31
1.82e-31
1.77492e-31
-4.39972e-36
1.35701e-34
-3.21003e-36
1.26614e-31
4.76845e-31
4.56736e-31
-6.6913e-35
1.65908e-30
3.95722e-31
-5.835e-36
-4.25934e-36
3.59369e-31
-2.40489e-36
-1.05271e-39
7.92342e-35
3.1816e-31
3.16136e-34
2.99593e-31
-9.94291e-36
3.13863e-31
-1.8329e-36
-4.94019e-38
3.02286e-34
9.84263e-32
7.78007e-32
6.8544e-32
-2.89823e-37
7.98748e-35
8.92127e-32
7.653e-35
8.02178e-32
8.07924e-32
7.96783e-35
1.82472e-34
2.00155e-35
2.18249e-35
1.99946e-32
2.1578e-32
-5.57995e-37
2.20811e-32
-1.48047e-37
-1.3088e-40
5.41789e-36
5.56798e-36
5.83959e-33
-1.6512e-37
1.39354e-33
1.59716e-33
3.35933e-37
1.07349e-34
3.72262e-37
-9.27491e-39
3.63261e-34
3.67118e-37
1.65397e-33
6.24971e-33
-1.95821e-37
-1.65055e-37
6.27669e-33
2.42612e-32
2.75574e-36
2.34408e-32
2.50174e-32
-6.2932e-38
2.49104e-32
2.33744e-32
2.48018e-32
9.65415e-32
9.13149e-35
6.66026e-35
4.0016e-31
-4.655e-36
1.01121e-31
6.30374e-35
1.1535e-31
9.34149e-35
4.156e-31
-3.65965e-35
4.15261e-34
1.67662e-33
3.9733e-34
4.15228e-31
4.78508e-31
4.86793e-31
5.11512e-31
-1.9491e-34
1.97615e-30
2.03775e-34
4.93351e-31
-1.13212e-34
5.31196e-31
2.18104e-30
-2.51858e-34
5.69061e-31
5.78813e-31
1.47082e-31
-1.61807e-37
7.21915e-37
3.63013e-32
-1.19355e-36
9.80328e-34
-1.12956e-36
1.02771e-31
9.99562e-32
-7.63084e-36
-1.99067e-35
1.39785e-30
-4.10285e-35
3.1001e-36
7.419e-37
3.14158e-31
3.08049e-31
6.43503e-35
7.48212e-35
2.94171e-31
2.82069e-34
2.78784e-34
-1.94153e-36
2.68197e-31
2.7888e-34
2.84645e-31
2.7652e-34
2.7685e-34
-2.36087e-39
-4.71468e-39
-1.22083e-36
2.87005e-31
7.21516e-32
-2.82341e-37
7.12271e-35
7.80534e-32
-3.52296e-37
7.01582e-42
-8.8183e-37
1.73426e-31
2.02361e-32
8.4279e-40
1.81188e-32
2.1947e-32
1.90855e-35
1.96787e-32
1.97785e-32
4.68038e-36
-3.64653e-40
4.70305e-36
5.18449e-33
1.37613e-33
3.01916e-37
3.14602e-34
2.91445e-37
8.85369e-35
2.94168e-34
-7.10218e-38
4.97121e-33
4.64067e-33
-1.37797e-37
4.76772e-36
1.4953e-36
7.81903e-32
1.90669e-32
7.57566e-32
-4.51787e-36
1.95094e-35
7.53542e-35
6.98225e-35
7.09396e-32
-2.36608e-36
7.35881e-35
6.15606e-35
6.79396e-32
6.5831e-35
-2.57697e-35
2.89012e-31
8.20605e-32
2.91715e-31
2.76054e-31
2.96195e-31
-2.3089e-35
3.02512e-34
-2.55666e-35
3.32823e-31
3.18668e-31
3.05115e-31
3.0388e-34
-4.9474e-38
8.78254e-35
6.64287e-35
3.75399e-31
3.87067e-31
3.9295e-31
1.61529e-30
-8.0907e-35
-2.96987e-35
4.4785e-31
5.43147e-36
3.97326e-36
-4.49604e-38
-7.28591e-39
-2.7628e-38
3.41568e-34
8.65573e-32
8.42986e-32
3.22391e-36
3.10692e-31
4.53467e-36
2.93588e-31
2.86448e-31
2.79048e-31
-4.01572e-38
2.70158e-31
-1.96061e-35
2.5467e-31
2.77015e-31
6.62969e-35
-4.94004e-37
-1.28489e-37
-1.80531e-36
2.52569e-31
-7.22402e-36
2.67356e-31
2.41455e-34
2.51027e-31
-1.44315e-36
-6.1312e-39
2.41314e-34
9.6056e-31
5.736e-35
6.15054e-35
6.73523e-32
6.12583e-35
5.9808e-32
-1.27024e-36
6.41195e-32
6.43666e-32
-3.58746e-37
1.58204e-35
1.55584e-35
1.63848e-35
6.34915e-35
1.62986e-35
1.57164e-32
3.5559e-36
4.29006e-33
4.27248e-33
9.37304e-34
1.12512e-33
9.61868e-37
2.45817e-34
9.41605e-37
5.30081e-35
2.0061e-37
8.86411e-34
9.37462e-34
3.80976e-33
-1.15921e-37
-1.42195e-41
-2.24758e-36
5.59612e-32
1.37783e-32
5.60619e-32
1.40991e-35
5.27603e-32
1.22376e-32
6.10139e-36
5.08934e-32
4.95574e-35
5.32054e-32
4.97623e-32
4.94216e-32
-2.78969e-36
2.7803e-35
1.91462e-31
-5.09191e-38
1.86649e-31
7.37961e-34
2.14667e-31
1.99213e-34
2.3345e-31
-1.59852e-35
2.0226e-34
2.23632e-34
-2.08594e-37
2.24465e-34
4.3381e-35
2.37105e-31
6.18708e-35
2.623e-31
1.10608e-30
1.13146e-30
-3.74866e-35
-9.94444e-36
3.19511e-31
3.33286e-31
3.41538e-31
3.5512e-31
9.00507e-32
9.03011e-32
-3.00307e-36
2.67305e-34
2.74752e-31
2.6918e-31
2.6092e-31
2.55584e-31
-5.29332e-36
-1.90973e-35
9.48017e-31
2.3598e-31
-1.40246e-35
2.28442e-31
-4.25923e-38
2.1833e-31
2.28862e-31
-4.04238e-36
8.50351e-31
2.32077e-31
2.05227e-34
2.16642e-31
2.13015e-34
2.10014e-34
2.0133e-31
2.41666e-31
2.03578e-34
2.13008e-31
-1.1269e-36
-3.77023e-38
5.17634e-35
-2.17646e-36
4.75005e-31
4.63098e-32
2.23829e-31
4.91774e-35
5.2425e-32
-2.49119e-37
5.12364e-41
4.76379e-40
1.2566e-35
1.28621e-32
1.24819e-35
1.27145e-32
-5.20068e-38
-3.86301e-38
3.29364e-33
1.2266e-32
5.76311e-37
6.66366e-37
-8.98822e-42
4.11727e-38
7.4915e-39
1.62655e-34
1.35557e-37
6.81083e-34
-3.57136e-38
2.79063e-33
2.42481e-36
2.46008e-36
2.1309e-35
1.03103e-32
9.48059e-33
3.83269e-32
3.52134e-32
3.58754e-32
-4.04884e-38
3.45073e-32
2.35545e-35
1.29367e-34
3.12997e-32
-9.90726e-36
3.28278e-32
-8.56614e-37
1.29863e-31
1.08428e-34
-6.64605e-36
1.22178e-31
-6.90607e-36
-8.22885e-38
-9.99024e-39
1.45829e-34
-3.07726e-38
1.31884e-34
1.4694e-31
1.42001e-31
1.37483e-34
6.48391e-31
7.28664e-36
3.3805e-35
1.83854e-31
1.92563e-31
2.01615e-31
2.12833e-31
2.23772e-31
2.33171e-31
2.48934e-31
2.57499e-31
1.07022e-30
6.84776e-32
-3.44841e-36
-7.13933e-39
2.11574e-34
5.41371e-32
2.13851e-31
8.45113e-31
2.0593e-31
-4.14284e-36
-2.44624e-36
1.98421e-31
7.79098e-31
-1.26634e-35
-2.65109e-37
-8.88362e-36
7.49278e-31
-7.83299e-37
7.14951e-31
6.85706e-31
1.70113e-31
-8.73668e-36
7.43347e-31
1.79401e-31
1.89249e-31
1.88236e-31
1.74231e-34
1.7008e-34
1.73829e-31
-8.67541e-37
1.68154e-34
-5.94394e-39
4.05246e-35
1.73831e-31
3.76561e-31
1.662e-31
4.1232e-32
-1.68537e-37
3.91116e-35
4.27305e-32
3.85586e-32
8.58206e-36
3.7729e-32
9.09555e-36
9.15721e-36
1.05427e-32
8.9725e-36
9.05188e-33
2.22776e-33
-1.95995e-40
2.13801e-33
-2.95716e-38
-1.93221e-44
-2.4533e-39
1.22401e-34
4.77537e-34
4.17807e-37
4.43878e-37
1.54614e-36
1.67495e-36
-1.84126e-41
-2.31319e-41
-1.57102e-38
4.85071e-36
5.71977e-33
2.44503e-32
2.37943e-32
-2.8888e-36
2.22904e-32
8.74542e-32
-3.55518e-36
-1.54805e-36
2.10419e-32
3.21958e-36
8.02833e-32
1.93777e-37
-4.58708e-39
8.07926e-35
3.45861e-34
8.2263e-35
-3.98366e-39
-4.4155e-36
8.84997e-32
-4.39064e-36
-5.88974e-39
9.04815e-35
8.33288e-35
4.1772e-31
-1.95217e-35
-2.0439e-35
4.89933e-31
-5.63478e-35
5.38546e-31
-1.59201e-35
1.0698e-35
1.61294e-31
1.53705e-30
1.833e-31
1.93618e-31
2.02409e-31
2.10695e-31
-3.13044e-36
-5.44125e-39
1.68055e-34
-1.79477e-38
-7.68072e-36
6.74197e-31
-3.11331e-35
2.49348e-36
3.80338e-36
6.37577e-31
6.34449e-31
-1.00968e-35
-2.69269e-41
0
-6.07713e-37
-2.97106e-37
-1.58971e-35
5.97601e-31
5.74338e-31
6.03709e-31
5.79307e-31
1.29482e-30
1.42712e-31
-9.3674e-38
1.36173e-34
1.34329e-34
1.36503e-31
-2.61907e-36
1.33412e-31
1.31811e-31
1.30245e-31
-5.93852e-37
-1.26577e-36
2.81991e-31
3.09502e-32
-2.40704e-39
2.99993e-32
2.95599e-32
2.73057e-32
2.71955e-35
2.7205e-32
-1.15885e-38
7.60026e-33
6.60209e-33
1.56955e-36
6.10032e-33
-4.51274e-38
3.59934e-37
1.50303e-33
-1.8626e-38
-8.91463e-44
3.57372e-39
8.49614e-35
3.2462e-34
-6.05704e-39
1.05927e-36
1.14068e-33
1.05327e-36
-3.01506e-39
-4.03478e-39
-1.85241e-37
3.90867e-33
-5.0411e-38
1.38735e-32
1.35392e-32
1.40258e-32
-1.97562e-37
8.6813e-36
1.47137e-35
1.27939e-35
4.98093e-35
5.607e-32
-1.90156e-37
1.96977e-31
4.13904e-35
4.76924e-35
5.16968e-32
5.29577e-35
-6.77251e-38
4.38422e-35
2.25016e-31
-1.0049e-35
5.34796e-35
6.08976e-35
5.96467e-35
2.6688e-31
2.89861e-31
-1.18987e-35
1.3088e-30
-9.39249e-35
3.78822e-31
4.00049e-31
4.28962e-31
-1.25883e-37
4.93608e-31
-7.27033e-37
1.40434e-31
5.39647e-36
2.20799e-36
1.65e-31
-4.44014e-36
1.28355e-34
3.37962e-32
2.50453e-37
1.32089e-31
5.27853e-31
-5.20449e-35
5.17986e-31
5.14638e-31
5.10902e-31
-3.52184e-37
3.05563e-35
-2.10649e-40
1.36984e-34
4.68195e-31
4.90518e-31
4.98125e-31
1.91521e-30
1.27225e-34
3.98138e-34
1.78152e-30
4.11744e-31
4.33157e-31
1.01145e-34
4.08353e-34
9.646e-32
-4.36358e-37
9.67018e-35
1.03648e-31
1.01751e-31
-3.66992e-39
8.37006e-32
8.75324e-32
8.84688e-32
8.66411e-32
8.48093e-32
-4.79649e-38
2.02245e-32
-4.5332e-37
1.92253e-32
1.87096e-32
4.84768e-33
4.25258e-36
-4.26061e-38
4.2976e-33
9.75965e-37
9.7672e-34
1.94706e-37
2.22188e-37
-1.91738e-42
-1.73345e-43
-8.6277e-41
1.81086e-37
1.59655e-37
6.84034e-34
7.48625e-34
6.63252e-37
2.52497e-33
2.51609e-33
2.43251e-33
1.58306e-36
-2.7209e-37
9.09214e-33
-9.03352e-37
7.86212e-33
5.85831e-36
3.1857e-32
3.12525e-32
-1.00404e-36
-1.57038e-36
2.85152e-32
2.83071e-32
3.7889e-35
2.94135e-35
-4.5953e-39
3.0547e-35
3.35213e-32
1.29408e-31
-4.46504e-36
1.45582e-34
5.56656e-34
1.40625e-31
-3.39735e-39
1.61509e-31
1.82222e-31
3.57274e-35
4.50103e-35
2.14767e-31
-1.55595e-35
2.54783e-31
1.1066e-30
3.01305e-31
-9.24487e-36
3.42454e-36
-8.76215e-36
4.22749e-31
-2.58918e-35
1.21262e-31
3.13706e-32
-8.44185e-37
-1.9871e-36
1.04377e-31
1.03078e-31
1.03317e-31
-1.4678e-35
4.12024e-31
4.02882e-31
3.98546e-31
4.0079e-31
2.5304e-37
2.06561e-40
-2.94062e-37
3.90574e-31
3.59311e-31
-7.34559e-36
6.68782e-35
1.42623e-30
3.4472e-31
3.60339e-31
3.10414e-31
-6.21942e-37
1.27268e-30
6.89297e-35
-1.18744e-39
7.13089e-35
-2.97213e-37
6.62475e-32
6.69818e-35
6.51045e-35
6.95599e-32
-2.68807e-37
-2.88308e-37
6.22084e-32
2.38018e-31
1.42415e-32
1.38106e-32
1.34047e-32
1.25559e-35
1.3759e-32
4.92473e-32
2.83974e-36
2.64373e-33
2.58965e-36
2.70398e-33
2.59082e-33
-1.51615e-38
-2.14836e-40
3.38645e-38
3.23971e-38
1.94366e-37
3.1562e-35
2.4338e-38
4.47189e-34
4.29817e-34
-1.32366e-38
1.67183e-33
1.6103e-33
-3.85e-38
1.38808e-33
5.34717e-33
-3.15686e-37
4.99066e-33
4.83443e-33
4.38863e-33
4.89561e-33
4.81044e-33
1.71425e-32
1.24471e-40
1.605e-32
1.76059e-35
-1.78149e-37
1.6039e-32
-2.1192e-37
1.48931e-35
7.11892e-32
1.83822e-32
7.1377e-32
6.9456e-35
6.42176e-38
-2.65754e-36
9.123e-32
9.17976e-35
1.16182e-34
1.11135e-31
-1.43409e-35
1.34283e-31
3.38179e-35
1.01984e-35
3.44161e-35
1.92373e-31
2.09145e-31
-3.5126e-36
-1.43949e-40
4.2614e-36
2.35462e-35
-2.83644e-36
8.89541e-32
-6.46909e-37
-8.22858e-42
7.31957e-35
7.87308e-32
7.9147e-32
8.1828e-32
6.34585e-36
-5.78186e-36
-1.53791e-37
-1.76798e-35
1.20211e-30
-1.58635e-35
1.45957e-35
2.93394e-31
2.90559e-31
2.67446e-31
6.2584e-35
5.77108e-34
2.244e-31
2.50944e-31
2.43374e-31
2.43043e-34
-4.80632e-36
8.94322e-31
2.06848e-34
4.62896e-34
4.99165e-35
4.81156e-35
5.08039e-32
4.92461e-32
4.36359e-35
1.7322e-31
4.44886e-32
3.91481e-35
9.21387e-36
3.76451e-32
-4.46453e-38
8.19654e-33
7.74523e-36
8.06505e-33
-3.81889e-37
3.11681e-32
7.34775e-33
6.81173e-33
1.62724e-33
-8.23218e-38
5.94477e-33
-2.31647e-38
3.37049e-34
7.57516e-38
7.80024e-38
7.11847e-38
-3.60344e-42
-3.71488e-39
2.66792e-34
2.07743e-37
8.76437e-34
8.93501e-34
-2.91218e-38
7.82082e-34
-2.82168e-38
2.71767e-33
2.95207e-33
1.0693e-32
2.59235e-33
2.51729e-33
2.43078e-33
-1.13049e-38
1.02173e-35
3.51133e-35
3.77007e-32
-8.41237e-37
8.9287e-36
-9.07788e-38
9.87046e-33
-2.40209e-37
3.9164e-32
3.27685e-35
4.18053e-32
4.68836e-32
4.96285e-32
4.33956e-35
4.19172e-38
-5.90337e-36
2.46324e-31
-6.00055e-36
-1.83921e-36
8.14621e-32
8.99877e-32
1.00239e-31
-2.69504e-36
-1.93591e-36
1.40495e-31
1.57641e-31
-3.97443e-36
-4.28388e-36
2.19998e-31
2.43736e-31
-7.63875e-36
1.76889e-32
-3.25182e-37
1.33908e-35
1.45509e-32
-3.74104e-36
2.39159e-31
2.35953e-31
2.33261e-31
-1.28589e-35
2.28018e-31
-1.61513e-36
2.21335e-31
1.02675e-35
6.00656e-36
-2.28583e-36
2.04293e-31
4.54314e-35
-1.42049e-39
1.46498e-34
1.62522e-31
1.50812e-34
1.50933e-34
1.46258e-34
1.30925e-34
1.41214e-34
1.36317e-34
3.25288e-35
1.24598e-34
1.19307e-31
2.95018e-32
2.10922e-40
2.71377e-32
2.60175e-32
2.49108e-32
-7.88009e-38
-7.94403e-40
-6.92229e-43
-4.19742e-38
4.95868e-33
4.7358e-33
4.79538e-33
4.43157e-33
3.82309e-33
8.52878e-33
9.19176e-34
-2.12826e-38
8.00216e-34
-9.50211e-40
2.0204e-34
4.19724e-38
4.10042e-35
-7.75916e-41
9.13313e-36
-5.03182e-40
1.13529e-37
1.16071e-34
4.67873e-34
-1.12808e-38
3.82515e-37
1.68645e-33
1.46731e-33
-1.64766e-38
-7.23051e-38
1.33112e-33
2.11232e-40
-1.42839e-39
-1.24102e-38
4.58465e-36
4.46675e-36
4.73253e-36
4.53389e-33
1.66388e-35
5.26616e-36
-2.0417e-37
4.70869e-33
-9.05047e-38
1.41121e-38
-4.64457e-37
2.33665e-32
2.33399e-32
2.47352e-32
2.35134e-32
2.98812e-35
-7.27237e-37
3.51992e-32
3.8879e-32
4.32236e-32
-4.03353e-36
5.32762e-32
6.03896e-32
3.49046e-36
1.00812e-35
9.22488e-32
1.04677e-31
-8.95043e-37
-2.7328e-37
4.28712e-37
1.72221e-31
4.76985e-32
1.2875e-32
-2.35781e-37
9.94959e-36
-3.33485e-38
-2.36712e-36
1.74737e-31
1.71278e-31
1.69591e-31
-8.72707e-36
1.62962e-31
6.4061e-31
6.23918e-31
2.05418e-35
1.3403e-35
1.42102e-31
1.31128e-31
1.16974e-36
1.32707e-34
1.12981e-31
1.11797e-34
4.28968e-34
1.11864e-31
1.00681e-31
9.57752e-32
8.84007e-35
8.28137e-35
8.05634e-35
7.65492e-35
7.23365e-32
1.68616e-35
6.74442e-32
-1.93945e-37
-4.90171e-38
1.44147e-32
-4.28768e-38
1.26623e-35
1.19436e-35
1.16289e-32
2.58088e-33
1.36293e-40
2.6051e-33
2.30951e-33
2.24115e-33
2.11629e-33
4.44173e-37
4.39603e-37
1.05083e-37
3.87714e-37
9.63876e-38
2.35664e-38
1.95133e-35
4.66027e-39
4.07383e-36
6.48088e-35
5.89084e-38
6.18011e-35
2.36109e-37
2.0076e-37
1.53781e-37
2.97682e-33
-1.25708e-37
6.55586e-34
5.83116e-34
6.34558e-34
-7.11311e-39
5.07794e-37
2.06358e-33
-2.77576e-38
-2.90434e-38
1.87855e-33
2.19018e-36
1.86597e-33
8.29294e-33
8.17325e-33
8.3808e-33
8.44771e-36
8.94931e-36
9.5339e-36
-2.97893e-39
4.5716e-35
1.30196e-32
1.34653e-32
1.56776e-32
-2.89034e-37
2.55385e-38
1.6209e-35
9.60384e-32
2.75213e-32
3.18297e-32
9.4147e-36
4.07264e-32
4.88374e-32
2.30488e-31
-2.08225e-36
7.76752e-32
9.01702e-32
1.04897e-31
-3.60963e-37
1.33252e-31
-3.00147e-36
-1.48724e-40
-1.84921e-41
-3.0072e-38
1.72605e-37
1.23627e-31
4.83108e-31
1.18748e-31
-1.11668e-36
-7.16189e-37
5.26934e-36
1.05207e-31
4.13038e-31
9.5152e-32
9.64133e-32
9.10843e-32
3.40261e-31
8.05727e-32
8.12208e-32
8.13278e-32
7.0477e-35
6.45134e-32
2.35727e-31
5.76203e-35
5.1117e-35
5.42892e-32
-2.20937e-37
4.87727e-40
1.07339e-35
4.11442e-32
3.74501e-32
-9.69778e-38
-4.65015e-44
-1.03471e-40
-1.92467e-41
6.68922e-36
6.24352e-36
6.01793e-33
1.38602e-36
1.27663e-36
1.2269e-33
1.21866e-33
1.13635e-33
-9.19658e-40
-1.21382e-42
2.083e-37
2.11197e-34
-8.95662e-40
-2.50527e-40
3.94638e-35
6.21784e-40
1.84735e-38
8.16847e-36
5.64466e-38
-8.095e-40
9.91842e-35
2.62308e-38
8.35095e-38
3.06784e-37
3.06736e-34
2.92124e-34
1.50986e-37
2.59352e-34
2.1733e-34
2.13311e-37
1.66556e-37
-6.54377e-40
7.62984e-37
7.44354e-37
9.57991e-37
7.18608e-37
7.05878e-34
-1.33792e-37
3.13424e-33
3.35825e-33
-3.00097e-38
-3.97228e-41
3.78165e-36
4.83623e-33
5.03189e-36
6.01968e-36
6.28919e-33
2.69211e-32
7.13867e-36
9.91855e-36
1.04145e-32
1.22893e-32
1.4473e-32
1.76729e-32
8.2828e-32
2.42966e-32
2.88915e-32
3.10706e-31
-2.3438e-36
4.88733e-32
2.31635e-31
2.73556e-31
7.47118e-37
2.22535e-32
2.50206e-32
-4.11845e-37
3.85878e-38
2.00511e-32
-1.09088e-36
8.18848e-32
3.23573e-31
-7.04358e-36
2.9165e-37
4.40961e-37
7.21968e-32
-6.60038e-36
1.04499e-30
-1.12786e-35
3.39765e-35
9.10228e-31
2.00913e-31
4.85564e-32
1.87805e-31
4.03528e-32
3.74644e-32