/*--------------------------------*- C++ -*----------------------------------*\
| =========                 |                                                 |
| \\      /  F ield         | OpenFOAM: The Open Source CFD Toolbox           |
|  \\    /   O peration     | Version:  2006                                  |
|   \\  /    A nd           | Website:  www.openfoam.com                      |
|    \\/     M anipulation  |                                                 |
\*---------------------------------------------------------------------------*/
FoamFile
{
    version     2.0;
    format      ascii;
    class       volScalarField;
    location    "20000";
    object      lambda2;
}
// * * * * * * * * * * * * * * * * * * * * * * * * * * * * * * * * * * * * * //

dimensions      [0 0 0 0 0 0 0];


internalField   nonuniform List<scalar> 
14751
(
-0.0531014
-0.0534818
-0.0539155
-0.0539496
-0.0539041
-0.0535367
-0.0529327
-0.0521368
-0.0511189
-0.0499387
-0.0486146
-0.0471713
-0.0456326
-0.0440427
-0.0424254
-0.0408051
-0.0392014
-0.0376265
-0.0361007
-0.0346337
-0.0332372
-0.0319091
-0.0306481
-0.0294548
-0.0283349
-0.0272826
-0.0262997
-0.0253823
-0.0245295
-0.0237373
-0.0230038
-0.0223253
-0.0216995
-0.0211234
-0.0205938
-0.0201098
-0.0196695
-0.0192681
-0.0189046
-0.0185786
-0.0182904
-0.0180331
-0.0178063
-0.0176077
-0.0174355
-0.0172929
-0.0171788
-0.0170931
-0.0170349
-0.0170047
-0.0170027
-0.0170279
-0.0170799
-0.0171607
-0.0172702
-0.0174084
-0.0175758
-0.0177725
-0.0179994
-0.0182541
-0.018536
-0.0188473
-0.0191869
-0.0195604
-0.0199676
-0.0204056
-0.0208749
-0.0213787
-0.0219183
-0.022491
-0.0230962
-0.0237305
-0.0243944
-0.0250874
-0.0258091
-0.0265664
-0.0273562
-0.028181
-0.0290419
-0.0299346
-0.0308645
-0.0318316
-0.0328464
-0.0338984
-0.0349967
-0.0361441
-0.0373387
-0.0385795
-0.0398582
-0.0411772
-0.042523
-0.043877
-0.0452572
-0.0466021
-0.0479147
-0.0491885
-0.0503113
-0.0512736
-0.052331
-0.415183
-0.416848
-0.4186
-0.4182
-0.416985
-0.413869
-0.409049
-0.402883
-0.395268
-0.386513
-0.37677
-0.366228
-0.355033
-0.343504
-0.331827
-0.320149
-0.308626
-0.297324
-0.286401
-0.275939
-0.26605
-0.256736
-0.247903
-0.239534
-0.231665
-0.224278
-0.217371
-0.210929
-0.204941
-0.199387
-0.194247
-0.189509
-0.185146
-0.181147
-0.177486
-0.174162
-0.171164
-0.16846
-0.166037
-0.163904
-0.162057
-0.160451
-0.159067
-0.1579
-0.156934
-0.156195
-0.155682
-0.155392
-0.155321
-0.155479
-0.155862
-0.156465
-0.15728
-0.158325
-0.159598
-0.161106
-0.162844
-0.164819
-0.167028
-0.169453
-0.172087
-0.174944
-0.178022
-0.181366
-0.184973
-0.188815
-0.192897
-0.197242
-0.20187
-0.206766
-0.211932
-0.217327
-0.222914
-0.22868
-0.23463
-0.240796
-0.24717
-0.253738
-0.260516
-0.267426
-0.274531
-0.281803
-0.28931
-0.296976
-0.304837
-0.312923
-0.321195
-0.329627
-0.338154
-0.346725
-0.355273
-0.36368
-0.371933
-0.379858
-0.387201
-0.394174
-0.400079
-0.405527
-0.410702
-2.74639
-2.75045
-2.7578
-2.76009
-2.7602
-2.75472
-2.73899
-2.71708
-2.68827
-2.65321
-2.61259
-2.56714
-2.51755
-2.46524
-2.41131
-2.35625
-2.30105
-2.24599
-2.19205
-2.13983
-2.09049
-2.04443
-2.0004
-1.95799
-1.91774
-1.87954
-1.84352
-1.80964
-1.77796
-1.74844
-1.72105
-1.69574
-1.67248
-1.65119
-1.63188
-1.61449
-1.59908
-1.58546
-1.57361
-1.56359
-1.55544
-1.54887
-1.54374
-1.54007
-1.53776
-1.53701
-1.53781
-1.54021
-1.54419
-1.54983
-1.55707
-1.56568
-1.57582
-1.58755
-1.60088
-1.6158
-1.63228
-1.65033
-1.66984
-1.69067
-1.71267
-1.73594
-1.76044
-1.78637
-1.81365
-1.84203
-1.87148
-1.90203
-1.93389
-1.96701
-2.00154
-2.03689
-2.07235
-2.10781
-2.14315
-2.17846
-2.21377
-2.24851
-2.28302
-2.31645
-2.34942
-2.38138
-2.41287
-2.44336
-2.47293
-2.50202
-2.53019
-2.55724
-2.58301
-2.60682
-2.6289
-2.64849
-2.66535
-2.68039
-2.69117
-2.70154
-2.70861
-2.71867
-2.72782
-10.6524
-10.6389
-10.6483
-10.663
-10.6827
-10.7047
-10.702
-10.6857
-10.6491
-10.5991
-10.5365
-10.4631
-10.3791
-10.2876
-10.1909
-10.0897
-9.98687
-9.8817
-9.77665
-9.67384
-9.5783
-9.49554
-9.41681
-9.33977
-9.26619
-9.19591
-9.12961
-9.0673
-9.00932
-8.95598
-8.90723
-8.86312
-8.82366
-8.78898
-8.75955
-8.73478
-8.71563
-8.70125
-8.69201
-8.68819
-8.6895
-8.69587
-8.70618
-8.72165
-8.74094
-8.76526
-8.79441
-8.82865
-8.86807
-8.91286
-8.96047
-9.01261
-9.06909
-9.13058
-9.1964
-9.2666
-9.34078
-9.41881
-9.50004
-9.58439
-9.67024
-9.75807
-9.84747
-9.93841
-10.0304
-10.1229
-10.2149
-10.3058
-10.3968
-10.4886
-10.5834
-10.6776
-10.7676
-10.8526
-10.9316
-11.0043
-11.0718
-11.131
-11.1836
-11.2264
-11.262
-11.2879
-11.3064
-11.3157
-11.3162
-11.3099
-11.2958
-11.2734
-11.2428
-11.202
-11.1546
-11.0964
-11.0277
-10.9577
-10.8741
-10.8
-10.7252
-10.673
-10.6275
-22.9514
-22.864
-22.8229
-22.8109
-22.8178
-22.8534
-22.8636
-22.8687
-22.8583
-22.8242
-22.7759
-22.727
-22.6713
-22.6106
-22.5483
-22.4843
-22.421
-22.3547
-22.2892
-22.2247
-22.1636
-22.1173
-22.0785
-22.0409
-22.0077
-21.9785
-21.9534
-21.9328
-21.9179
-21.9084
-21.9033
-21.9046
-21.9111
-21.9239
-21.9428
-21.9682
-22.0001
-22.0379
-22.0834
-22.1361
-22.1951
-22.2605
-22.3315
-22.4094
-22.4935
-22.5834
-22.6792
-22.7832
-22.8929
-23.0036
-23.1197
-23.2407
-23.366
-23.4972
-23.6321
-23.7714
-23.9133
-24.0579
-24.2042
-24.3522
-24.4979
-24.6436
-24.7877
-24.9285
-25.0665
-25.199
-25.3262
-25.4455
-25.5571
-25.6629
-25.7657
-25.8633
-25.9505
-26.0258
-26.0885
-26.1368
-26.1742
-26.193
-26.1981
-26.1835
-26.1539
-26.1041
-26.0375
-25.9515
-25.8472
-25.7252
-25.5871
-25.4309
-25.258
-25.0651
-24.862
-24.6375
-24.3916
-24.1504
-23.8791
-23.6345
-23.3865
-23.1773
-22.984
-32.25
-32.0508
-31.8853
-31.7492
-31.6264
-31.5466
-31.4535
-31.3678
-31.2846
-31.197
-31.1072
-31.0118
-30.9304
-30.856
-30.7913
-30.7324
-30.6824
-30.6363
-30.5954
-30.5548
-30.5046
-30.4331
-30.3753
-30.3221
-30.2796
-30.2469
-30.2232
-30.2077
-30.2011
-30.2044
-30.2146
-30.2342
-30.2635
-30.3011
-30.3478
-30.4035
-30.4674
-30.5409
-30.6213
-30.7132
-30.8111
-30.9173
-31.033
-31.1536
-31.2841
-31.4232
-31.5695
-31.72
-31.8761
-32.0347
-32.1995
-32.3687
-32.5431
-32.7201
-32.9004
-33.0839
-33.2701
-33.4563
-33.6425
-33.8282
-34.0126
-34.1943
-34.3725
-34.5474
-34.7171
-34.8802
-35.0353
-35.1818
-35.3183
-35.4391
-35.5392
-35.6271
-35.7064
-35.7755
-35.8341
-35.8831
-35.9228
-35.9475
-35.961
-35.9578
-35.9462
-35.9126
-35.862
-35.7945
-35.7019
-35.5903
-35.4543
-35.2984
-35.1217
-34.9196
-34.7024
-34.4634
-34.1971
-33.9267
-33.6234
-33.3325
-33.0257
-32.7138
-32.3902
-34.7813
-34.4665
-34.1435
-33.8145
-33.4696
-33.1552
-32.84
-32.5388
-32.2531
-31.9807
-31.7269
-31.4889
-31.263
-31.0564
-30.8728
-30.7062
-30.557
-30.421
-30.2987
-30.182
-30.0736
-29.9656
-29.8743
-29.7993
-29.7375
-29.69
-29.6565
-29.6372
-29.6279
-29.6312
-29.6475
-29.6737
-29.7122
-29.7615
-29.8203
-29.8885
-29.9685
-30.0569
-30.1549
-30.2605
-30.3748
-30.4985
-30.6307
-30.7697
-30.918
-31.0716
-31.2324
-31.3971
-31.5652
-31.7415
-31.9175
-32.0992
-32.2833
-32.4675
-32.655
-32.8429
-33.0321
-33.2212
-33.4071
-33.5913
-33.775
-33.9556
-34.1312
-34.3059
-34.4732
-34.6379
-34.7944
-34.9447
-35.0893
-35.2235
-35.3486
-35.4679
-35.5868
-35.703
-35.815
-35.9242
-36.0318
-36.1405
-36.2454
-36.3406
-36.4315
-36.5114
-36.5819
-36.6415
-36.6823
-36.712
-36.7212
-36.7139
-36.687
-36.6392
-36.576
-36.4913
-36.3807
-36.2516
-36.0854
-35.9051
-35.6854
-35.4066
-35.0297
-31.62
-31.2596
-30.8594
-30.4297
-29.9655
-29.529
-29.0972
-28.6876
-28.3055
-27.9509
-27.6273
-27.3308
-27.0628
-26.8179
-26.5973
-26.4029
-26.232
-26.0798
-25.9464
-25.8286
-25.7319
-25.661
-25.607
-25.5676
-25.543
-25.5323
-25.5311
-25.544
-25.5678
-25.6012
-25.6452
-25.6982
-25.7604
-25.8321
-25.9104
-25.9972
-26.0888
-26.1897
-26.2992
-26.4114
-26.5317
-26.6585
-26.7902
-26.9268
-27.066
-27.2077
-27.3548
-27.5049
-27.6536
-27.8058
-27.9591
-28.112
-28.2638
-28.4143
-28.5646
-28.7138
-28.8572
-29.0007
-29.1419
-29.2758
-29.4086
-29.537
-29.661
-29.782
-29.8964
-30.0079
-30.1155
-30.2198
-30.3192
-30.4191
-30.5237
-30.6313
-30.7398
-30.8527
-30.9668
-31.0881
-31.2127
-31.3363
-31.4657
-31.5935
-31.7242
-31.8527
-31.9784
-32.1006
-32.2158
-32.3226
-32.4198
-32.5025
-32.576
-32.6383
-32.6854
-32.7207
-32.7336
-32.7278
-32.6832
-32.6083
-32.4812
-32.2641
-31.9067
-26.5542
-26.2297
-25.862
-25.4635
-25.0363
-24.6345
-24.2492
-23.8855
-23.558
-23.2625
-22.9973
-22.7609
-22.5567
-22.377
-22.2209
-22.0874
-21.974
-21.8841
-21.808
-21.751
-21.7096
-21.6856
-21.6766
-21.6784
-21.6897
-21.7146
-21.7467
-21.7888
-21.8373
-21.8937
-21.958
-22.0288
-22.1049
-22.1847
-22.2723
-22.3644
-22.4589
-22.5608
-22.6646
-22.7741
-22.8836
-22.9967
-23.1122
-23.2296
-23.346
-23.4657
-23.5834
-23.6997
-23.8158
-23.9292
-24.042
-24.151
-24.2581
-24.3626
-24.4611
-24.5562
-24.6475
-24.7325
-24.8142
-24.891
-24.964
-25.0312
-25.093
-25.1512
-25.2066
-25.2588
-25.3072
-25.3556
-25.4018
-25.4502
-25.5024
-25.5578
-25.6163
-25.68
-25.7509
-25.826
-25.9049
-25.9889
-26.0796
-26.1724
-26.2674
-26.3687
-26.4686
-26.5714
-26.674
-26.7728
-26.866
-26.9553
-27.0405
-27.1189
-27.1919
-27.2612
-27.3122
-27.3512
-27.3609
-27.3369
-27.2624
-27.1005
-26.8001
-22.026
-21.7596
-21.4617
-21.138
-20.7912
-20.4665
-20.1643
-19.8859
-19.6407
-19.4232
-19.2345
-19.0742
-18.9371
-18.826
-18.7313
-18.659
-18.6024
-18.5615
-18.5347
-18.524
-18.526
-18.5383
-18.5589
-18.5915
-18.6283
-18.6723
-18.7262
-18.7832
-18.8458
-18.9109
-18.983
-19.0587
-19.1366
-19.217
-19.301
-19.3886
-19.4782
-19.5684
-19.6585
-19.7498
-19.8428
-19.9342
-20.0255
-20.1167
-20.2057
-20.2934
-20.3753
-20.4565
-20.5339
-20.6073
-20.6759
-20.7411
-20.8018
-20.8583
-20.9089
-20.9542
-20.9945
-21.0291
-21.0556
-21.0817
-21.0992
-21.1143
-21.1242
-21.1305
-21.1361
-21.1372
-21.1372
-21.1367
-21.1398
-21.1438
-21.1506
-21.1624
-21.1791
-21.2033
-21.2317
-21.2643
-21.3033
-21.3509
-21.4025
-21.4606
-21.5232
-21.5934
-21.6676
-21.7442
-21.8245
-21.9039
-21.9854
-22.0684
-22.15
-22.2284
-22.3097
-22.3913
-22.4621
-22.5243
-22.5659
-22.5775
-22.5467
-22.4359
-22.2056
-18.3713
-18.1708
-17.9426
-17.6979
-17.437
-17.1977
-16.9753
-16.7743
-16.6048
-16.4573
-16.3356
-16.2367
-16.1579
-16.096
-16.053
-16.0226
-16.0078
-16.0049
-16.0116
-16.0291
-16.0557
-16.0898
-16.1285
-16.1744
-16.227
-16.281
-16.3421
-16.4025
-16.4688
-16.5365
-16.6056
-16.6773
-16.7494
-16.823
-16.8981
-16.9715
-17.0456
-17.1192
-17.1907
-17.261
-17.3325
-17.3988
-17.4625
-17.5245
-17.5836
-17.6374
-17.6869
-17.7329
-17.7744
-17.8096
-17.8402
-17.865
-17.8852
-17.8995
-17.908
-17.9118
-17.9082
-17.9009
-17.8887
-17.8711
-17.849
-17.8235
-17.7958
-17.765
-17.7322
-17.699
-17.6654
-17.6332
-17.6024
-17.5764
-17.5535
-17.5363
-17.5259
-17.5202
-17.5211
-17.5258
-17.5392
-17.559
-17.5851
-17.6204
-17.662
-17.7099
-17.7654
-17.8268
-17.8905
-17.9605
-18.0332
-18.1099
-18.1892
-18.2705
-18.3559
-18.4457
-18.5306
-18.6111
-18.6727
-18.7127
-18.7159
-18.6533
-18.4908
-15.5117
-15.3711
-15.2051
-15.0281
-14.838
-14.6681
-14.5144
-14.3779
-14.2667
-14.176
-14.1033
-14.0497
-14.0106
-13.9861
-13.9769
-13.9757
-13.9853
-14.0068
-14.0324
-14.066
-14.1039
-14.148
-14.1966
-14.2482
-14.3026
-14.3605
-14.4173
-14.4774
-14.5381
-14.5997
-14.6612
-14.7213
-14.7826
-14.8434
-14.9026
-14.9605
-15.0163
-15.0703
-15.1231
-15.1719
-15.2174
-15.2586
-15.296
-15.3287
-15.3579
-15.3821
-15.4037
-15.417
-15.4263
-15.4289
-15.4268
-15.4197
-15.4076
-15.3894
-15.3644
-15.3348
-15.3009
-15.2608
-15.2198
-15.1717
-15.1231
-15.0701
-15.0161
-14.9612
-14.9047
-14.85
-14.7979
-14.7456
-14.6957
-14.6532
-14.6147
-14.5836
-14.5571
-14.5357
-14.5208
-14.5111
-14.5106
-14.5162
-14.5311
-14.5532
-14.5847
-14.6237
-14.6682
-14.722
-14.7799
-14.8456
-14.9162
-14.991
-15.0731
-15.1584
-15.2511
-15.3486
-15.4431
-15.5345
-15.6142
-15.676
-15.709
-15.6842
-15.5801
-13.2778
-13.1836
-13.07
-12.9454
-12.8129
-12.6971
-12.5947
-12.5069
-12.4378
-12.3879
-12.3515
-12.3278
-12.3163
-12.3173
-12.3264
-12.343
-12.3675
-12.3985
-12.4347
-12.4756
-12.5189
-12.5648
-12.6132
-12.6625
-12.7126
-12.7641
-12.8162
-12.8696
-12.9196
-12.9705
-13.0195
-13.067
-13.1138
-13.1602
-13.2016
-13.2421
-13.2788
-13.3121
-13.3428
-13.3696
-13.3914
-13.411
-13.4235
-13.4312
-13.435
-13.4337
-13.4277
-13.4163
-13.3979
-13.3754
-13.3471
-13.3155
-13.2774
-13.2345
-13.1873
-13.136
-13.0807
-13.0214
-12.9582
-12.8934
-12.8274
-12.7598
-12.6916
-12.623
-12.5561
-12.4895
-12.4272
-12.3673
-12.3128
-12.2621
-12.2178
-12.1812
-12.1483
-12.1213
-12.1003
-12.0874
-12.081
-12.0849
-12.0954
-12.114
-12.143
-12.179
-12.2229
-12.2756
-12.3339
-12.3981
-12.4707
-12.5496
-12.6344
-12.7254
-12.8227
-12.9266
-13.0287
-13.1324
-13.2259
-13.3038
-13.359
-13.3657
-13.3034
-11.5151
-11.4585
-11.3827
-11.2992
-11.2125
-11.1344
-11.0681
-11.016
-10.978
-10.9523
-10.9378
-10.9333
-10.9426
-10.9553
-10.975
-11.0011
-11.0316
-11.0654
-11.1047
-11.145
-11.1862
-11.2297
-11.2716
-11.3161
-11.3591
-11.4017
-11.4425
-11.4845
-11.5228
-11.5617
-11.5967
-11.6316
-11.6622
-11.6903
-11.715
-11.7368
-11.7545
-11.7705
-11.7785
-11.7856
-11.7876
-11.7847
-11.7777
-11.7652
-11.7477
-11.7258
-11.6981
-11.6653
-11.629
-11.5882
-11.5414
-11.4906
-11.4356
-11.3767
-11.3138
-11.2485
-11.1806
-11.1101
-11.0365
-10.9626
-10.8881
-10.8142
-10.7418
-10.6677
-10.5989
-10.5303
-10.4663
-10.4066
-10.3522
-10.3012
-10.261
-10.2217
-10.1897
-10.1641
-10.1465
-10.1339
-10.1294
-10.1358
-10.1487
-10.1688
-10.1977
-10.2357
-10.2822
-10.3369
-10.3995
-10.4672
-10.5427
-10.6244
-10.7133
-10.8089
-10.9108
-11.0202
-11.1293
-11.2418
-11.3456
-11.4366
-11.5085
-11.5403
-11.5107
-10.0972
-10.076
-10.0249
-9.97458
-9.9144
-9.86528
-9.82617
-9.79798
-9.77894
-9.76932
-9.77001
-9.77794
-9.79227
-9.81282
-9.83712
-9.86442
-9.89645
-9.92802
-9.96342
-9.99981
-10.035
-10.0688
-10.1042
-10.1399
-10.1739
-10.2052
-10.236
-10.2639
-10.2897
-10.3136
-10.3366
-10.354
-10.3698
-10.3808
-10.3897
-10.3952
-10.3959
-10.3942
-10.3868
-10.3763
-10.361
-10.34
-10.3152
-10.2871
-10.2538
-10.2147
-10.1729
-10.127
-10.0756
-10.0223
-9.96357
-9.90115
-9.83664
-9.76982
-9.69899
-9.62565
-9.55103
-9.47612
-9.40077
-9.32606
-9.24977
-9.17496
-9.10234
-9.03305
-8.9652
-8.90121
-8.84233
-8.78667
-8.73552
-8.69287
-8.65532
-8.62039
-8.59436
-8.57263
-8.55844
-8.55188
-8.55451
-8.56259
-8.58172
-8.6061
-8.63877
-8.68207
-8.73198
-8.78813
-8.85426
-8.92543
-9.00657
-9.09039
-9.18404
-9.28329
-9.38982
-9.50341
-9.62075
-9.73317
-9.8448
-9.94424
-10.0298
-10.0791
-10.0755
-8.93809
-8.93956
-8.90789
-8.88086
-8.84253
-8.81354
-8.7922
-8.77645
-8.77041
-8.77084
-8.77847
-8.79195
-8.80621
-8.82761
-8.85105
-8.87768
-8.90519
-8.93438
-8.96326
-8.98926
-9.01765
-9.04216
-9.06983
-9.09187
-9.11521
-9.13503
-9.15434
-9.16957
-9.18204
-9.19197
-9.20031
-9.20381
-9.2049
-9.20223
-9.19804
-9.18772
-9.17477
-9.15661
-9.13668
-9.11199
-9.08281
-9.04966
-9.01234
-8.97154
-8.92707
-8.8777
-8.82639
-8.77055
-8.71129
-8.65027
-8.58607
-8.51831
-8.44845
-8.37782
-8.30602
-8.23142
-8.15645
-8.08264
-8.00923
-7.93603
-7.86385
-7.79396
-7.72711
-7.66344
-7.60184
-7.54392
-7.4906
-7.44463
-7.40255
-7.36555
-7.33234
-7.30768
-7.28607
-7.27188
-7.26372
-7.26339
-7.2724
-7.28553
-7.30822
-7.34156
-7.37854
-7.42504
-7.4786
-7.54046
-7.60784
-7.68271
-7.76474
-7.85592
-7.95063
-8.05414
-8.16419
-8.27719
-8.39827
-8.51421
-8.6309
-8.7341
-8.82819
-8.88729
-8.90314
-7.97381
-7.98705
-7.97223
-7.96031
-7.93792
-7.92048
-7.91016
-7.90159
-7.90161
-7.9066
-7.91511
-7.92799
-7.94444
-7.96193
-7.98166
-8.00285
-8.02272
-8.04427
-8.06525
-8.08285
-8.10061
-8.11769
-8.1334
-8.14467
-8.15656
-8.16599
-8.17017
-8.17327
-8.1759
-8.17348
-8.16814
-8.16044
-8.14897
-8.13431
-8.11668
-8.09481
-8.07067
-8.04278
-8.01146
-7.97534
-7.93614
-7.89397
-7.84905
-7.80134
-7.74928
-7.69459
-7.63724
-7.57702
-7.5155
-7.44954
-7.38342
-7.31686
-7.24668
-7.1756
-7.10633
-7.03406
-6.96428
-6.89524
-6.82653
-6.7576
-6.6926
-6.62969
-6.56989
-6.51278
-6.45961
-6.41132
-6.36625
-6.32717
-6.29391
-6.26448
-6.23891
-6.2213
-6.2056
-6.19972
-6.19888
-6.20648
-6.21771
-6.24029
-6.2667
-6.30316
-6.34713
-6.39656
-6.45395
-6.51736
-6.58887
-6.6672
-6.7521
-6.84388
-6.94035
-7.04516
-7.15632
-7.27016
-7.39032
-7.51173
-7.62896
-7.73742
-7.83274
-7.90004
-7.92911
-7.15425
-7.17816
-7.1733
-7.16917
-7.15464
-7.14736
-7.13994
-7.13668
-7.13812
-7.14309
-7.15191
-7.16136
-7.17463
-7.18693
-7.2014
-7.21316
-7.22726
-7.23873
-7.24922
-7.2597
-7.26758
-7.27406
-7.27828
-7.28086
-7.2795
-7.2781
-7.2739
-7.26569
-7.25587
-7.24299
-7.22759
-7.20837
-7.18896
-7.16464
-7.13577
-7.10582
-7.07338
-7.03697
-6.99832
-6.95592
-6.91147
-6.86501
-6.81497
-6.76135
-6.70714
-6.65074
-6.589
-6.52952
-6.46736
-6.40241
-6.33749
-6.27236
-6.20655
-6.13989
-6.07361
-6.00724
-5.94347
-5.88048
-5.81783
-5.75812
-5.70099
-5.64605
-5.593
-5.54604
-5.50028
-5.46152
-5.42639
-5.39471
-5.36776
-5.34667
-5.32946
-5.31664
-5.3099
-5.30917
-5.31611
-5.32788
-5.34575
-5.3715
-5.40524
-5.44198
-5.48913
-5.5429
-5.60245
-5.66902
-5.74179
-5.82259
-5.90962
-5.99926
-6.09886
-6.2047
-6.31277
-6.42937
-6.54659
-6.66927
-6.78453
-6.89594
-6.99181
-7.06421
-7.10488
-6.44362
-6.47535
-6.47216
-6.47354
-6.46664
-6.46274
-6.45735
-6.45432
-6.45623
-6.45971
-6.46324
-6.46939
-6.47529
-6.4821
-6.48687
-6.49248
-6.49987
-6.50399
-6.5045
-6.506
-6.5041
-6.50159
-6.49575
-6.48896
-6.47862
-6.4654
-6.45321
-6.43556
-6.41634
-6.39605
-6.37161
-6.34489
-6.31625
-6.28579
-6.25202
-6.21526
-6.17712
-6.13448
-6.09214
-6.0455
-5.99755
-5.94831
-5.89765
-5.84243
-5.78715
-5.7317
-5.6728
-5.61339
-5.55323
-5.49208
-5.43118
-5.36869
-5.30887
-5.2484
-5.18701
-5.12883
-5.07202
-5.01485
-4.9599
-4.90829
-4.85825
-4.8125
-4.76921
-4.72821
-4.69359
-4.66077
-4.63248
-4.6085
-4.59132
-4.57539
-4.56495
-4.55858
-4.55792
-4.56452
-4.57546
-4.59074
-4.6152
-4.64221
-4.68037
-4.72285
-4.7687
-4.8243
-4.88691
-4.95657
-5.02831
-5.10959
-5.1949
-5.28624
-5.38553
-5.4908
-5.59798
-5.71384
-5.83044
-5.94663
-6.06438
-6.17266
-6.27126
-6.34624
-6.39136
-5.81511
-5.85316
-5.85286
-5.8567
-5.85398
-5.8478
-5.84306
-5.83835
-5.83663
-5.83661
-5.83436
-5.83677
-5.83658
-5.83498
-5.83459
-5.83256
-5.82965
-5.82644
-5.81862
-5.81083
-5.80204
-5.7897
-5.77622
-5.76044
-5.74333
-5.72326
-5.70105
-5.67847
-5.65276
-5.62411
-5.59434
-5.5621
-5.52753
-5.49082
-5.45359
-5.41425
-5.37294
-5.3296
-5.2828
-5.2354
-5.18745
-5.13584
-5.08498
-5.03312
-4.97872
-4.92457
-4.8705
-4.81481
-4.75732
-4.70213
-4.64616
-4.58912
-4.53363
-4.47943
-4.42626
-4.37534
-4.32491
-4.27471
-4.22879
-4.18406
-4.1431
-4.10431
-4.06888
-4.03516
-4.00742
-3.98244
-3.96011
-3.94337
-3.93105
-3.92205
-3.91686
-3.91564
-3.92151
-3.9315
-3.94548
-3.96696
-3.99261
-4.02562
-4.063
-4.10796
-4.15762
-4.21357
-4.27809
-4.34404
-4.41896
-4.49962
-4.58407
-4.67622
-4.77227
-4.87421
-4.98365
-5.096
-5.20936
-5.32415
-5.43744
-5.54564
-5.64156
-5.71974
-5.76511
-5.25684
-5.29633
-5.29961
-5.30183
-5.29928
-5.29091
-5.28438
-5.2798
-5.27185
-5.26547
-5.26065
-5.256
-5.24836
-5.2405
-5.23333
-5.22533
-5.21357
-5.20061
-5.18918
-5.17274
-5.15597
-5.13586
-5.11499
-5.09366
-5.06929
-5.04557
-5.01605
-4.98786
-4.95774
-4.92445
-4.88981
-4.85539
-4.81665
-4.77825
-4.7372
-4.69667
-4.65344
-4.60904
-4.56331
-4.5179
-4.47108
-4.42115
-4.37113
-4.32226
-4.27139
-4.2199
-4.16907
-4.11718
-4.06544
-4.0153
-3.96629
-3.91533
-3.86657
-3.81838
-3.77192
-3.72699
-3.68185
-3.64063
-3.6018
-3.56494
-3.53147
-3.49826
-3.46946
-3.44497
-3.42171
-3.40253
-3.38722
-3.37722
-3.36709
-3.36204
-3.36233
-3.3665
-3.37624
-3.38835
-3.40767
-3.43127
-3.45893
-3.49555
-3.5332
-3.57831
-3.63142
-3.68733
-3.74817
-3.81717
-3.89161
-3.96976
-4.0533
-4.14436
-4.23918
-4.33786
-4.44402
-4.55295
-4.66295
-4.77686
-4.88548
-4.98974
-5.08481
-5.16169
-5.20883
-4.75401
-4.79144
-4.79378
-4.79837
-4.79138
-4.78244
-4.77352
-4.76404
-4.7528
-4.74078
-4.73183
-4.71851
-4.70535
-4.69316
-4.67849
-4.66407
-4.64651
-4.62634
-4.60831
-4.58739
-4.56264
-4.53837
-4.51153
-4.48601
-4.45737
-4.42579
-4.3949
-4.36162
-4.32793
-4.2922
-4.25609
-4.21829
-4.18016
-4.14042
-4.10038
-4.05708
-4.01351
-3.97104
-3.9282
-3.88326
-3.83619
-3.79128
-3.7454
-3.69846
-3.65173
-3.60499
-3.55814
-3.511
-3.46622
-3.41929
-3.3758
-3.33262
-3.2896
-3.24788
-3.20738
-3.16785
-3.13053
-3.09679
-3.06343
-3.03328
-3.00467
-2.9775
-2.95452
-2.93568
-2.91791
-2.904
-2.89393
-2.88745
-2.88258
-2.88145
-2.88418
-2.89234
-2.90444
-2.92056
-2.94081
-2.96678
-2.99688
-3.0328
-3.0728
-3.11875
-3.17086
-3.22573
-3.28701
-3.35485
-3.42607
-3.50255
-3.58615
-3.67356
-3.76639
-3.86301
-3.9631
-4.06995
-4.17814
-4.2862
-4.39375
-4.49303
-4.58657
-4.65884
-4.70639
-4.29467
-4.32784
-4.33074
-4.33295
-4.32485
-4.31443
-4.30184
-4.28605
-4.27219
-4.25684
-4.24183
-4.22166
-4.20465
-4.1874
-4.16672
-4.1448
-4.12212
-4.09905
-4.07281
-4.04575
-4.02017
-3.99153
-3.96193
-3.93176
-3.89828
-3.86485
-3.83187
-3.79768
-3.76091
-3.72329
-3.68653
-3.64732
-3.61052
-3.56977
-3.5298
-3.49037
-3.44857
-3.40731
-3.36485
-3.3227
-3.27921
-3.23863
-3.19508
-3.15263
-3.10974
-3.06777
-3.02644
-2.98563
-2.94521
-2.90496
-2.86339
-2.82723
-2.78934
-2.75244
-2.71909
-2.68638
-2.65556
-2.62514
-2.59773
-2.57178
-2.54863
-2.52956
-2.51035
-2.49505
-2.48222
-2.47188
-2.4667
-2.46198
-2.46222
-2.46481
-2.46981
-2.4802
-2.4932
-2.51164
-2.53417
-2.56106
-2.59203
-2.62715
-2.66808
-2.71325
-2.7629
-2.81848
-2.8789
-2.94383
-3.01391
-3.08918
-3.16972
-3.25381
-3.34327
-3.43646
-3.53307
-3.6365
-3.73941
-3.8444
-3.94729
-4.04451
-4.13268
-4.20287
-4.25092
-3.87286
-3.90123
-3.90376
-3.90229
-3.8922
-3.87899
-3.86532
-3.84566
-3.82722
-3.80852
-3.7854
-3.7638
-3.74222
-3.71927
-3.69325
-3.66656
-3.64108
-3.61365
-3.58485
-3.55511
-3.52348
-3.49364
-3.46096
-3.42749
-3.39204
-3.35953
-3.32379
-3.28806
-3.25098
-3.21556
-3.17728
-3.1408
-3.10152
-3.06391
-3.02488
-2.98749
-2.94853
-2.90799
-2.86875
-2.83063
-2.7921
-2.75309
-2.71332
-2.67427
-2.63707
-2.59882
-2.56218
-2.52566
-2.4904
-2.45498
-2.41914
-2.38705
-2.35566
-2.32351
-2.29467
-2.26756
-2.24074
-2.21546
-2.19299
-2.17189
-2.15344
-2.13762
-2.12423
-2.11203
-2.10361
-2.09619
-2.09396
-2.09224
-2.09285
-2.09866
-2.10696
-2.11783
-2.13264
-2.15303
-2.17614
-2.20196
-2.23491
-2.26911
-2.30896
-2.35308
-2.40155
-2.45604
-2.5135
-2.57724
-2.64597
-2.71806
-2.79352
-2.87604
-2.96026
-3.04994
-3.14489
-3.24111
-3.34269
-3.44076
-3.53908
-3.63205
-3.71701
-3.78702
-3.83121
-3.4833
-3.50974
-3.51066
-3.50654
-3.49287
-3.47739
-3.45894
-3.43556
-3.41447
-3.39026
-3.36616
-3.34249
-3.31568
-3.28788
-3.25934
-3.23018
-3.20064
-3.17085
-3.13966
-3.10751
-3.07307
-3.04033
-3.00611
-2.97238
-2.93794
-2.90289
-2.86731
-2.83133
-2.79503
-2.76003
-2.72325
-2.68768
-2.65033
-2.61416
-2.57903
-2.54063
-2.50461
-2.4694
-2.43355
-2.39699
-2.36236
-2.32672
-2.29151
-2.25777
-2.22418
-2.18926
-2.15687
-2.12423
-2.09262
-2.06184
-2.03316
-2.00376
-1.97623
-1.95044
-1.92499
-1.90112
-1.88
-1.85903
-1.84072
-1.82364
-1.80909
-1.7957
-1.78486
-1.77636
-1.77032
-1.76666
-1.76535
-1.76612
-1.76924
-1.77628
-1.78584
-1.79791
-1.81548
-1.8343
-1.85719
-1.88434
-1.91573
-1.94971
-1.98795
-2.03189
-2.07869
-2.12975
-2.18701
-2.24553
-2.31225
-2.38062
-2.45398
-2.53261
-2.61286
-2.70039
-2.79147
-2.88193
-2.97801
-3.07256
-3.1659
-3.25439
-3.3356
-3.40089
-3.44233
-3.1196
-3.14673
-3.14473
-3.13831
-3.12368
-3.10423
-3.08102
-3.05766
-3.03182
-3.00549
-2.98005
-2.95176
-2.92254
-2.89271
-2.86218
-2.83124
-2.79812
-2.76644
-2.7332
-2.69873
-2.66678
-2.6312
-2.59708
-2.56165
-2.52819
-2.49216
-2.4583
-2.42217
-2.38977
-2.35374
-2.31849
-2.28403
-2.25031
-2.21586
-2.1821
-2.14884
-2.11481
-2.08257
-2.05068
-2.01635
-1.98496
-1.95368
-1.92234
-1.89234
-1.86206
-1.83279
-1.80322
-1.77449
-1.74646
-1.72038
-1.6961
-1.671
-1.64628
-1.62441
-1.60276
-1.58375
-1.56491
-1.54856
-1.53224
-1.51838
-1.50697
-1.49672
-1.48751
-1.48205
-1.47766
-1.47564
-1.47592
-1.47841
-1.4847
-1.49084
-1.50081
-1.51474
-1.53132
-1.55052
-1.57392
-1.60012
-1.62897
-1.66348
-1.70062
-1.74206
-1.78621
-1.83614
-1.89062
-1.94793
-2.00855
-2.07555
-2.14598
-2.21816
-2.29713
-2.37989
-2.46431
-2.55385
-2.64347
-2.73396
-2.8235
-2.90663
-2.98335
-3.04286
-3.08474
-2.78289
-2.8069
-2.80251
-2.79633
-2.77897
-2.75758
-2.73351
-2.70813
-2.68089
-2.65212
-2.62096
-2.59101
-2.56055
-2.52782
-2.49797
-2.46586
-2.43155
-2.39844
-2.36367
-2.33061
-2.29656
-2.26331
-2.22962
-2.19422
-2.16048
-2.12687
-2.09356
-2.05908
-2.02649
-1.99284
-1.96099
-1.92814
-1.89708
-1.86498
-1.83317
-1.80302
-1.77301
-1.74187
-1.71214
-1.68367
-1.65515
-1.62523
-1.59891
-1.57098
-1.544
-1.51909
-1.49358
-1.46872
-1.44567
-1.42309
-1.40096
-1.37911
-1.35872
-1.33977
-1.32216
-1.3059
-1.28844
-1.27586
-1.2632
-1.25171
-1.24136
-1.2333
-1.22761
-1.22301
-1.22074
-1.22082
-1.22069
-1.22408
-1.22992
-1.23818
-1.24902
-1.26245
-1.27852
-1.29857
-1.32003
-1.34426
-1.3739
-1.40494
-1.44144
-1.48064
-1.52265
-1.57032
-1.61943
-1.67593
-1.73248
-1.79704
-1.86331
-1.93296
-2.0078
-2.08461
-2.16495
-2.2488
-2.33478
-2.41987
-2.50449
-2.58322
-2.65618
-2.71481
-2.75181
-2.47204
-2.49114
-2.48666
-2.47697
-2.45889
-2.43752
-2.41241
-2.38285
-2.35411
-2.32415
-2.294
-2.26192
-2.22939
-2.1981
-2.16468
-2.13229
-2.09912
-2.06537
-2.03124
-1.99855
-1.96452
-1.93108
-1.89834
-1.86516
-1.83315
-1.80099
-1.7674
-1.73657
-1.70445
-1.67378
-1.64456
-1.61411
-1.5838
-1.55483
-1.52719
-1.49831
-1.47071
-1.44421
-1.41638
-1.39087
-1.36511
-1.33903
-1.31504
-1.2918
-1.26805
-1.24493
-1.22243
-1.20272
-1.18115
-1.16222
-1.14242
-1.12403
-1.107
-1.09125
-1.07563
-1.06115
-1.04787
-1.03574
-1.02585
-1.01704
-1.00929
-1.00268
-0.998261
-0.994966
-0.993909
-0.995137
-0.996176
-0.99956
-1.00648
-1.01472
-1.02656
-1.0386
-1.05441
-1.07285
-1.09274
-1.11786
-1.14447
-1.17501
-1.20829
-1.24562
-1.28565
-1.32981
-1.37536
-1.42667
-1.48411
-1.54176
-1.60417
-1.67167
-1.74098
-1.814
-1.88896
-1.96745
-2.04828
-2.13049
-2.20888
-2.2837
-2.35165
-2.40794
-2.44244
-2.18163
-2.19975
-2.19346
-2.18222
-2.16349
-2.14017
-2.11209
-2.08365
-2.05467
-2.02335
-1.99378
-1.9607
-1.92899
-1.89692
-1.8626
-1.8292
-1.79803
-1.76443
-1.73176
-1.69869
-1.66699
-1.63404
-1.60159
-1.57115
-1.54027
-1.50898
-1.47868
-1.4495
-1.42013
-1.39189
-1.36357
-1.33636
-1.30902
-1.28284
-1.25655
-1.23129
-1.20583
-1.18256
-1.15783
-1.13511
-1.11206
-1.09087
-1.06814
-1.04714
-1.02671
-1.00679
-0.987282
-0.969325
-0.950553
-0.933216
-0.917165
-0.902355
-0.887678
-0.874196
-0.86076
-0.848474
-0.838286
-0.828098
-0.818982
-0.811938
-0.805942
-0.800925
-0.798042
-0.795177
-0.794443
-0.794823
-0.798352
-0.803044
-0.808992
-0.817206
-0.827888
-0.839845
-0.854356
-0.87139
-0.891009
-0.914558
-0.939472
-0.967133
-0.998569
-1.03139
-1.06945
-1.1102
-1.1551
-1.20284
-1.25516
-1.30909
-1.36779
-1.42837
-1.4939
-1.56321
-1.63458
-1.70978
-1.78584
-1.86005
-1.93608
-2.00738
-2.06879
-2.1211
-2.15532
-1.91027
-1.92928
-1.92298
-1.91032
-1.89077
-1.86548
-1.83779
-1.81021
-1.78093
-1.74948
-1.7168
-1.6873
-1.65439
-1.62107
-1.59012
-1.55686
-1.52553
-1.49316
-1.46275
-1.43028
-1.39894
-1.36889
-1.33893
-1.30949
-1.27931
-1.25106
-1.22361
-1.19572
-1.16871
-1.14261
-1.11621
-1.09195
-1.06745
-1.04383
-1.01882
-0.996948
-0.974808
-0.95234
-0.931716
-0.911823
-0.891502
-0.87288
-0.852675
-0.834061
-0.81692
-0.799185
-0.782851
-0.766798
-0.752037
-0.736494
-0.722153
-0.708957
-0.69683
-0.684796
-0.674755
-0.663769
-0.655708
-0.647657
-0.639614
-0.634421
-0.628296
-0.625072
-0.622816
-0.620612
-0.62039
-0.622159
-0.625006
-0.629964
-0.635075
-0.643435
-0.652001
-0.664934
-0.678207
-0.693896
-0.713192
-0.732881
-0.756201
-0.780895
-0.810443
-0.841384
-0.876151
-0.913516
-0.954918
-0.999098
-1.04625
-1.09651
-1.15136
-1.20815
-1.2699
-1.33242
-1.40178
-1.47034
-1.54157
-1.61135
-1.68341
-1.74948
-1.80823
-1.85677
-1.88711
-1.65996
-1.67622
-1.66999
-1.65755
-1.63724
-1.61334
-1.58767
-1.55907
-1.52761
-1.49922
-1.46806
-1.4371
-1.4058
-1.37555
-1.34455
-1.31395
-1.28221
-1.25065
-1.22081
-1.19139
-1.16268
-1.13373
-1.10602
-1.07721
-1.05004
-1.02338
-0.997253
-0.972867
-0.948033
-0.923908
-0.900524
-0.877902
-0.854933
-0.833821
-0.813395
-0.792705
-0.773685
-0.754329
-0.736623
-0.717523
-0.699968
-0.682924
-0.667289
-0.650218
-0.635417
-0.620927
-0.606737
-0.591947
-0.579174
-0.567464
-0.555028
-0.543592
-0.533142
-0.522768
-0.513332
-0.505634
-0.497983
-0.491197
-0.485267
-0.480251
-0.476068
-0.472789
-0.470429
-0.469828
-0.470199
-0.472448
-0.474775
-0.479042
-0.484428
-0.491821
-0.500419
-0.51121
-0.524213
-0.538566
-0.554311
-0.573395
-0.59389
-0.617874
-0.643246
-0.672136
-0.703532
-0.737445
-0.775153
-0.814363
-0.857723
-0.905325
-0.954883
-1.00914
-1.06552
-1.12272
-1.18523
-1.25017
-1.31656
-1.38357
-1.44818
-1.5107
-1.56676
-1.61159
-1.63983
-1.43075
-1.44425
-1.43787
-1.42408
-1.40455
-1.38201
-1.35649
-1.32852
-1.29971
-1.27097
-1.24131
-1.21171
-1.18194
-1.15303
-1.12321
-1.09375
-1.06422
-1.03592
-1.00643
-0.978489
-0.952265
-0.925533
-0.89859
-0.872873
-0.848474
-0.823242
-0.799532
-0.777369
-0.754648
-0.733511
-0.711964
-0.692025
-0.672706
-0.653055
-0.635009
-0.616579
-0.599725
-0.583393
-0.566713
-0.55052
-0.535707
-0.52048
-0.507373
-0.492897
-0.479612
-0.467466
-0.455571
-0.443048
-0.432361
-0.421852
-0.411453
-0.402718
-0.393297
-0.385454
-0.377655
-0.370688
-0.363725
-0.35829
-0.353634
-0.348979
-0.346604
-0.344274
-0.342011
-0.34209
-0.342272
-0.343321
-0.346031
-0.349718
-0.355165
-0.361712
-0.369342
-0.378904
-0.389715
-0.402576
-0.416736
-0.433165
-0.451784
-0.473618
-0.495855
-0.521383
-0.549265
-0.579553
-0.613437
-0.651001
-0.689195
-0.732674
-0.778036
-0.826727
-0.877522
-0.933376
-0.98901
-1.05014
-1.10999
-1.17227
-1.23262
-1.2899
-1.34299
-1.38572
-1.41352
-1.21915
-1.23311
-1.22507
-1.21139
-1.19418
-1.17128
-1.14605
-1.12019
-1.09244
-1.06491
-1.03658
-1.00983
-0.981385
-0.952455
-0.925208
-0.896749
-0.869385
-0.842989
-0.817569
-0.791007
-0.764795
-0.741328
-0.716447
-0.693567
-0.670786
-0.649185
-0.627843
-0.606851
-0.587216
-0.568055
-0.549353
-0.531198
-0.514444
-0.498176
-0.48159
-0.466394
-0.450866
-0.435872
-0.422114
-0.408821
-0.395934
-0.383404
-0.37125
-0.360145
-0.348596
-0.338024
-0.327679
-0.318243