/*--------------------------------*- C++ -*----------------------------------*\
| =========                 |                                                 |
| \\      /  F ield         | OpenFOAM: The Open Source CFD Toolbox           |
|  \\    /   O peration     | Version:  2006                                  |
|   \\  /    A nd           | Website:  www.openfoam.com                      |
|    \\/     M anipulation  |                                                 |
\*---------------------------------------------------------------------------*/
FoamFile
{
    version     2.0;
    format      ascii;
    class       volScalarField;
    location    "20000";
    object      p;
}
// * * * * * * * * * * * * * * * * * * * * * * * * * * * * * * * * * * * * * //

dimensions      [0 2 -2 0 0 0 0];


internalField   nonuniform List<scalar> 
14751
(
-0.000112692
-0.000109638
-0.000106028
-0.000102331
-9.83611e-05
-9.42002e-05
-8.9952e-05
-8.55914e-05
-8.12083e-05
-7.68304e-05
-7.25077e-05
-6.8272e-05
-6.41648e-05
-6.02156e-05
-5.64474e-05
-5.2888e-05
-4.95441e-05
-4.6439e-05
-4.35713e-05
-4.09512e-05
-3.85741e-05
-3.64459e-05
-3.4558e-05
-3.29154e-05
-3.1504e-05
-3.03221e-05
-2.93589e-05
-2.86088e-05
-2.80622e-05
-2.7711e-05
-2.75471e-05
-2.75619e-05
-2.77476e-05
-2.80963e-05
-2.86e-05
-2.92529e-05
-3.00463e-05
-3.09745e-05
-3.20307e-05
-3.32097e-05
-3.45051e-05
-3.59106e-05
-3.74225e-05
-3.9033e-05
-4.07398e-05
-4.25359e-05
-4.44177e-05
-4.6379e-05
-4.8416e-05
-5.05229e-05
-5.26955e-05
-5.49277e-05
-5.72154e-05
-5.95529e-05
-6.19353e-05
-6.43563e-05
-6.68116e-05
-6.92945e-05
-7.18005e-05
-7.43212e-05
-7.6854e-05
-7.93901e-05
-8.19251e-05
-8.44528e-05
-8.69667e-05
-8.94605e-05
-9.1928e-05
-9.43647e-05
-9.67615e-05
-9.91139e-05
-0.000101416
-0.000103664
-0.000105854
-0.000107979
-0.000110037
-0.000112021
-0.000113921
-0.000115743
-0.000117465
-0.000119099
-0.000120617
-0.000122032
-0.000123319
-0.000124475
-0.000125488
-0.000126342
-0.000127028
-0.000127525
-0.000127816
-0.000127892
-0.000127715
-0.000127285
-0.000126587
-0.000125561
-0.000124277
-0.000122615
-0.000120645
-0.000118311
-0.00011589
-0.000112691
-0.000109638
-0.000106027
-0.000102331
-9.83612e-05
-9.42005e-05
-8.99525e-05
-8.5592e-05
-8.12091e-05
-7.68312e-05
-7.25087e-05
-6.82732e-05
-6.4166e-05
-6.02169e-05
-5.64488e-05
-5.28895e-05
-4.95457e-05
-4.64406e-05
-4.3573e-05
-4.0953e-05
-3.85759e-05
-3.64477e-05
-3.45599e-05
-3.29173e-05
-3.15058e-05
-3.03239e-05
-2.93607e-05
-2.86105e-05
-2.80639e-05
-2.77127e-05
-2.75486e-05
-2.75634e-05
-2.7749e-05
-2.80977e-05
-2.86012e-05
-2.92541e-05
-3.00474e-05
-3.09756e-05
-3.20316e-05
-3.32105e-05
-3.45058e-05
-3.59113e-05
-3.74231e-05
-3.90335e-05
-4.07402e-05
-4.25363e-05
-4.44179e-05
-4.63792e-05
-4.84161e-05
-5.05229e-05
-5.26954e-05
-5.49275e-05
-5.72151e-05
-5.95525e-05
-6.19348e-05
-6.43558e-05
-6.6811e-05
-6.92937e-05
-7.17996e-05
-7.43203e-05
-7.6853e-05
-7.9389e-05
-8.19239e-05
-8.44515e-05
-8.69653e-05
-8.9459e-05
-9.19264e-05
-9.43631e-05
-9.67598e-05
-9.91121e-05
-0.000101414
-0.000103662
-0.000105852
-0.000107977
-0.000110034
-0.000112019
-0.000113919
-0.00011574
-0.000117463
-0.000119096
-0.000120615
-0.00012203
-0.000123316
-0.000124472
-0.000125486
-0.00012634
-0.000127025
-0.000127522
-0.000127813
-0.00012789
-0.000127713
-0.000127283
-0.000126585
-0.000125559
-0.000124276
-0.000122614
-0.000120644
-0.00011831
-0.000115889
-0.000112691
-0.000109638
-0.000106028
-0.000102332
-9.83628e-05
-9.42023e-05
-8.99545e-05
-8.5594e-05
-8.1211e-05
-7.68331e-05
-7.25105e-05
-6.82749e-05
-6.41677e-05
-6.02185e-05
-5.64503e-05
-5.2891e-05
-4.95471e-05
-4.64421e-05
-4.35745e-05
-4.09546e-05
-3.85776e-05
-3.64496e-05
-3.45618e-05
-3.29193e-05
-3.15079e-05
-3.0326e-05
-2.93628e-05
-2.86126e-05
-2.80659e-05
-2.77146e-05
-2.75505e-05
-2.75652e-05
-2.77508e-05
-2.80993e-05
-2.86028e-05
-2.92555e-05
-3.00487e-05
-3.09768e-05
-3.20328e-05
-3.32115e-05
-3.45067e-05
-3.5912e-05
-3.74238e-05
-3.90341e-05
-4.07406e-05
-4.25366e-05
-4.44181e-05
-4.63792e-05
-4.8416e-05
-5.05227e-05
-5.26951e-05
-5.4927e-05
-5.72146e-05
-5.95518e-05
-6.1934e-05
-6.43549e-05
-6.68099e-05
-6.92925e-05
-7.17983e-05
-7.43188e-05
-7.68514e-05
-7.93873e-05
-8.19221e-05
-8.44496e-05
-8.69633e-05
-8.94568e-05
-9.19241e-05
-9.43607e-05
-9.67572e-05
-9.91095e-05
-0.000101411
-0.00010366
-0.000105849
-0.000107974
-0.000110031
-0.000112016
-0.000113916
-0.000115737
-0.000117459
-0.000119093
-0.000120612
-0.000122027
-0.000123313
-0.000124469
-0.000125483
-0.000126337
-0.000127023
-0.00012752
-0.000127811
-0.000127888
-0.000127711
-0.00012728
-0.000126583
-0.000125557
-0.000124274
-0.000122612
-0.000120643
-0.000118308
-0.000115888
-0.000112691
-0.000109639
-0.000106029
-0.000102335
-9.83659e-05
-9.42055e-05
-8.99579e-05
-8.55972e-05
-8.12139e-05
-7.68357e-05
-7.25128e-05
-6.8277e-05
-6.41696e-05
-6.02201e-05
-5.64517e-05
-5.28923e-05
-4.95483e-05
-4.64433e-05
-4.35757e-05
-4.0956e-05
-3.85791e-05
-3.64513e-05
-3.45637e-05
-3.29213e-05
-3.151e-05
-3.03282e-05
-2.9365e-05
-2.86148e-05
-2.80681e-05
-2.77168e-05
-2.75526e-05
-2.75672e-05
-2.77526e-05
-2.81011e-05
-2.86044e-05
-2.9257e-05
-3.00501e-05
-3.0978e-05
-3.20338e-05
-3.32125e-05
-3.45075e-05
-3.59127e-05
-3.74243e-05
-3.90344e-05
-4.07408e-05
-4.25366e-05
-4.4418e-05
-4.63789e-05
-4.84156e-05
-5.05221e-05
-5.26943e-05
-5.49261e-05
-5.72135e-05
-5.95506e-05
-6.19326e-05
-6.43533e-05
-6.68082e-05
-6.92906e-05
-7.17963e-05
-7.43166e-05
-7.68491e-05
-7.93848e-05
-8.19194e-05
-8.44468e-05
-8.69603e-05
-8.94538e-05
-9.19209e-05
-9.43573e-05
-9.67538e-05
-9.91058e-05
-0.000101407
-0.000103656
-0.000105845
-0.00010797
-0.000110027
-0.000112011
-0.000113911
-0.000115733
-0.000117455
-0.000119089
-0.000120608
-0.000122023
-0.000123309
-0.000124466
-0.00012548
-0.000126334
-0.000127019
-0.000127517
-0.000127808
-0.000127885
-0.000127709
-0.000127278
-0.000126581
-0.000125555
-0.000124272
-0.000122611
-0.000120642
-0.000118307
-0.000115889
-0.000112692
-0.000109641
-0.000106033
-0.000102339
-9.83709e-05
-9.42106e-05
-8.99631e-05
-8.56021e-05
-8.12183e-05
-7.68396e-05
-7.25163e-05
-6.82801e-05
-6.41722e-05
-6.02224e-05
-5.64536e-05
-5.28939e-05
-4.95497e-05
-4.64446e-05
-4.35771e-05
-4.09575e-05
-3.85808e-05
-3.64532e-05
-3.45658e-05
-3.29237e-05
-3.15125e-05
-3.03307e-05
-2.93676e-05
-2.86174e-05
-2.80706e-05
-2.77192e-05
-2.75549e-05
-2.75694e-05
-2.77547e-05
-2.81029e-05
-2.86061e-05
-2.92586e-05
-3.00514e-05
-3.09791e-05
-3.20348e-05
-3.32132e-05
-3.4508e-05
-3.5913e-05
-3.74243e-05
-3.90342e-05
-4.07404e-05
-4.2536e-05
-4.44172e-05
-4.63779e-05
-4.84143e-05
-5.05207e-05
-5.26926e-05
-5.49242e-05
-5.72114e-05
-5.95482e-05
-6.193e-05
-6.43505e-05
-6.68052e-05
-6.92875e-05
-7.17929e-05
-7.43131e-05
-7.68454e-05
-7.93809e-05
-8.19154e-05
-8.44426e-05
-8.6956e-05
-8.94493e-05
-9.19163e-05
-9.43526e-05
-9.67489e-05
-9.91009e-05
-0.000101402
-0.000103651
-0.00010584
-0.000107965
-0.000110022
-0.000112006
-0.000113906
-0.000115727
-0.000117449
-0.000119083
-0.000120602
-0.000122018
-0.000123304
-0.000124461
-0.000125475
-0.00012633
-0.000127016
-0.000127514
-0.000127806
-0.000127883
-0.000127707
-0.000127276
-0.00012658
-0.000125554
-0.000124272
-0.00012261
-0.000120642
-0.000118307
-0.000115892
-0.000112695
-0.000109646
-0.000106038
-0.000102345
-9.83785e-05
-9.42183e-05
-8.99709e-05
-8.56096e-05
-8.12251e-05
-7.68458e-05
-7.25219e-05
-6.82851e-05
-6.41768e-05
-6.02264e-05
-5.64571e-05
-5.2897e-05
-4.95524e-05
-4.64471e-05
-4.35795e-05
-4.096e-05
-3.85837e-05
-3.64566e-05
-3.45694e-05
-3.29273e-05
-3.15162e-05
-3.03344e-05
-2.93712e-05
-2.86209e-05
-2.80739e-05
-2.77223e-05
-2.75578e-05
-2.7572e-05
-2.77571e-05
-2.8105e-05
-2.86079e-05
-2.926e-05
-3.00526e-05
-3.09799e-05
-3.20353e-05
-3.32133e-05
-3.45078e-05
-3.59124e-05
-3.74234e-05
-3.9033e-05
-4.07388e-05
-4.25341e-05
-4.44149e-05
-4.63753e-05
-4.84114e-05
-5.05174e-05
-5.2689e-05
-5.49203e-05
-5.72072e-05
-5.95437e-05
-6.19253e-05
-6.43455e-05
-6.68e-05
-6.9282e-05
-7.17872e-05
-7.43072e-05
-7.68393e-05
-7.93747e-05
-8.1909e-05
-8.4436e-05
-8.69493e-05
-8.94425e-05
-9.19094e-05
-9.43456e-05
-9.67418e-05
-9.90939e-05
-0.000101395
-0.000103644
-0.000105833
-0.000107958
-0.000110015
-0.000111999
-0.000113899
-0.00011572
-0.000117442
-0.000119077
-0.000120596
-0.000122012
-0.000123299
-0.000124456
-0.000125471
-0.000126326
-0.000127012
-0.000127511
-0.000127803
-0.000127881
-0.000127705
-0.000127275
-0.000126579
-0.000125553
-0.000124272
-0.000122611
-0.000120644
-0.000118308
-0.000115897
-0.0001127
-0.000109654
-0.000106047
-0.000102355
-9.83902e-05
-9.42304e-05
-8.99832e-05
-8.56215e-05
-8.12364e-05
-7.68564e-05
-7.25317e-05
-6.82943e-05
-6.41852e-05
-6.02342e-05
-5.64641e-05
-5.29034e-05
-4.95583e-05
-4.64526e-05
-4.35848e-05
-4.09652e-05
-3.85891e-05
-3.64623e-05
-3.4575e-05
-3.29329e-05
-3.15216e-05
-3.03396e-05
-2.93761e-05
-2.86254e-05
-2.80781e-05
-2.77261e-05
-2.75612e-05
-2.75749e-05
-2.77595e-05
-2.8107e-05
-2.86093e-05
-2.92609e-05
-3.0053e-05
-3.09798e-05
-3.20346e-05
-3.32122e-05
-3.45061e-05
-3.59102e-05
-3.74207e-05
-3.90298e-05
-4.07352e-05
-4.25299e-05
-4.44103e-05
-4.63702e-05
-4.84058e-05
-5.05113e-05
-5.26826e-05
-5.49134e-05
-5.71999e-05
-5.95361e-05
-6.19173e-05
-6.43372e-05
-6.67914e-05
-6.92732e-05
-7.17782e-05
-7.4298e-05
-7.68298e-05
-7.9365e-05
-8.18993e-05
-8.44261e-05
-8.69394e-05
-8.94324e-05
-9.18993e-05
-9.43354e-05
-9.67317e-05
-9.90839e-05
-0.000101386
-0.000103634
-0.000105824
-0.000107948
-0.000110005
-0.00011199
-0.00011389
-0.000115711
-0.000117433
-0.000119068
-0.000120587
-0.000122004
-0.000123291
-0.000124449
-0.000125465
-0.000126321
-0.000127008
-0.000127507
-0.0001278
-0.000127879
-0.000127704
-0.000127275
-0.00012658
-0.000125554
-0.000124274
-0.000122614
-0.000120648
-0.00011831
-0.000115906
-0.000112709
-0.000109667
-0.000106061
-0.00010237
-9.84072e-05
-9.4248e-05
-9.0001e-05
-8.5639e-05
-8.12531e-05
-7.68722e-05
-7.25466e-05
-6.83082e-05
-6.41981e-05
-6.0246e-05
-5.64748e-05
-5.29132e-05
-4.95671e-05
-4.64607e-05
-4.35924e-05
-4.09723e-05
-3.8596e-05
-3.6469e-05
-3.45814e-05
-3.2939e-05
-3.15273e-05
-3.03448e-05
-2.93808e-05
-2.86296e-05
-2.80817e-05
-2.77291e-05
-2.75636e-05
-2.75767e-05
-2.77607e-05
-2.81075e-05
-2.86092e-05
-2.92602e-05
-3.00515e-05
-3.09777e-05
-3.2032e-05
-3.32088e-05
-3.45022e-05
-3.59057e-05
-3.74155e-05
-3.9024e-05
-4.07288e-05
-4.25229e-05
-4.44027e-05
-4.63621e-05
-4.83972e-05
-5.05022e-05
-5.2673e-05
-5.49034e-05
-5.71895e-05
-5.95253e-05
-6.19062e-05
-6.43258e-05
-6.67797e-05
-6.92612e-05
-7.1766e-05
-7.42856e-05
-7.68173e-05
-7.93524e-05
-8.18866e-05
-8.44134e-05
-8.69266e-05
-8.94197e-05
-9.18865e-05
-9.43227e-05
-9.6719e-05
-9.90713e-05
-0.000101373
-0.000103622
-0.000105811
-0.000107936
-0.000109993
-0.000111978
-0.000113878
-0.0001157
-0.000117422
-0.000119057
-0.000120577
-0.000121994
-0.000123283
-0.000124441
-0.000125458
-0.000126315
-0.000127003
-0.000127503
-0.000127798
-0.000127878
-0.000127704
-0.000127275
-0.000126582
-0.000125556
-0.000124278
-0.000122619
-0.000120654
-0.000118316
-0.000115919
-0.000112721
-0.000109684
-0.000106079
-0.00010239
-9.84291e-05
-9.42706e-05
-9.00237e-05
-8.56611e-05
-8.12742e-05
-7.68921e-05
-7.2565e-05
-6.83253e-05
-6.42136e-05
-6.026e-05
-5.64873e-05
-5.29242e-05
-4.95768e-05
-4.64693e-05
-4.36e-05
-4.09792e-05
-3.86022e-05
-3.64748e-05
-3.45867e-05
-3.29437e-05
-3.15315e-05
-3.03484e-05
-2.93838e-05
-2.86319e-05
-2.80833e-05
-2.77301e-05
-2.75638e-05
-2.75762e-05
-2.77594e-05
-2.81055e-05
-2.86065e-05
-2.92568e-05
-3.00475e-05
-3.0973e-05
-3.20265e-05
-3.32027e-05
-3.44954e-05
-3.58982e-05
-3.74074e-05
-3.90153e-05
-4.07194e-05
-4.2513e-05
-4.43922e-05
-4.6351e-05
-4.83856e-05
-5.04902e-05
-5.26605e-05
-5.48906e-05
-5.71763e-05
-5.95118e-05
-6.18923e-05
-6.43117e-05
-6.67654e-05
-6.92467e-05
-7.17513e-05
-7.42709e-05
-7.68025e-05
-7.93376e-05
-8.18719e-05
-8.43987e-05
-8.6912e-05
-8.94051e-05
-9.18721e-05
-9.43084e-05
-9.67049e-05
-9.90574e-05
-0.00010136
-0.000103608
-0.000105798
-0.000107923
-0.000109981
-0.000111965
-0.000113866
-0.000115688
-0.000117411
-0.000119046
-0.000120567
-0.000121984
-0.000123274
-0.000124434
-0.000125451
-0.00012631
-0.000126999
-0.000127501
-0.000127796
-0.000127878
-0.000127706
-0.000127278
-0.000126586
-0.000125562
-0.000124285
-0.000122628
-0.000120664
-0.000118325
-0.000115936
-0.000112738
-0.000109706
-0.000106103
-0.000102415
-9.84555e-05
-9.42979e-05
-9.00507e-05
-8.56873e-05
-8.12989e-05
-7.69151e-05
-7.25862e-05
-6.83446e-05
-6.42309e-05
-6.02752e-05
-5.65005e-05
-5.29354e-05
-4.95863e-05
-4.64772e-05
-4.36066e-05
-4.09847e-05
-3.86069e-05
-3.64789e-05
-3.459e-05
-3.29464e-05
-3.15334e-05
-3.03496e-05
-2.93842e-05
-2.86316e-05
-2.80822e-05
-2.77282e-05
-2.75611e-05
-2.75728e-05
-2.77552e-05
-2.81006e-05
-2.86009e-05
-2.92504e-05
-3.00404e-05
-3.09651e-05
-3.2018e-05
-3.31935e-05
-3.44855e-05
-3.58877e-05
-3.73962e-05
-3.90036e-05
-4.07071e-05
-4.25001e-05
-4.43788e-05
-4.63371e-05
-4.83712e-05
-5.04754e-05
-5.26453e-05
-5.4875e-05
-5.71604e-05
-5.94956e-05
-6.1876e-05
-6.42951e-05
-6.67487e-05
-6.923e-05
-7.17345e-05
-7.42542e-05
-7.67859e-05
-7.93211e-05
-8.18555e-05
-8.43824e-05
-8.68959e-05
-8.93893e-05
-9.18565e-05
-9.4293e-05
-9.66898e-05
-9.90426e-05
-0.000101345
-0.000103594
-0.000105785
-0.00010791
-0.000109968
-0.000111953
-0.000113853
-0.000115676
-0.000117399
-0.000119035
-0.000120557
-0.000121975
-0.000123266
-0.000124427
-0.000125446
-0.000126306
-0.000126997
-0.0001275
-0.000127797
-0.000127881
-0.00012771
-0.000127284
-0.000126594
-0.000125571
-0.000124295
-0.00012264
-0.000120679
-0.000118338
-0.000115958
-0.000112759
-0.000109733
-0.000106131
-0.000102444
-9.84864e-05
-9.43294e-05
-9.00817e-05
-8.5717e-05
-8.13268e-05
-7.69408e-05
-7.26095e-05
-6.83655e-05
-6.42494e-05
-6.02911e-05
-5.65138e-05
-5.29463e-05
-4.9595e-05
-4.6484e-05
-4.36117e-05
-4.09885e-05
-3.86096e-05
-3.64806e-05
-3.45909e-05
-3.29464e-05
-3.15326e-05
-3.0348e-05
-2.93817e-05
-2.86282e-05
-2.8078e-05
-2.77232e-05
-2.75553e-05
-2.75662e-05
-2.77478e-05
-2.80924e-05
-2.8592e-05
-2.92407e-05
-3.003e-05
-3.0954e-05
-3.20063e-05
-3.3181e-05
-3.44724e-05
-3.5874e-05
-3.73819e-05
-3.89887e-05
-4.06916e-05
-4.24841e-05
-4.43624e-05
-4.63202e-05
-4.8354e-05
-5.04578e-05
-5.26274e-05
-5.48568e-05
-5.7142e-05
-5.9477e-05
-6.18573e-05
-6.42764e-05
-6.67299e-05
-6.92113e-05
-7.17159e-05
-7.42357e-05
-7.67676e-05
-7.9303e-05
-8.18377e-05
-8.43649e-05
-8.68788e-05
-8.93725e-05
-9.18401e-05
-9.42769e-05
-9.66741e-05
-9.90274e-05
-0.00010133
-0.00010358
-0.000105771
-0.000107896
-0.000109954
-0.00011194
-0.000113841
-0.000115664
-0.000117388
-0.000119025
-0.000120547
-0.000121967
-0.000123259
-0.000124421
-0.000125442
-0.000126304
-0.000126997
-0.000127502
-0.000127801
-0.000127886
-0.000127718
-0.000127294
-0.000126605
-0.000125584
-0.00012431
-0.000122657
-0.000120697
-0.000118355
-0.000115985
-0.000112784
-0.000109764
-0.000106163
-0.000102478
-9.85215e-05
-9.43652e-05
-9.01164e-05
-8.57502e-05
-8.13576e-05
-7.69689e-05
-7.26347e-05
-6.83878e-05
-6.42686e-05
-6.03072e-05
-5.65268e-05
-5.29564e-05
-4.96025e-05
-4.64891e-05
-4.36149e-05
-4.099e-05
-3.86098e-05
-3.64797e-05
-3.4589e-05
-3.29435e-05
-3.15287e-05
-3.03431e-05
-2.93758e-05
-2.86214e-05
-2.80704e-05
-2.77146e-05
-2.75459e-05
-2.7556e-05
-2.77368e-05
-2.80807e-05
-2.85795e-05
-2.92275e-05
-3.00161e-05
-3.09394e-05
-3.19911e-05
-3.31652e-05
-3.44559e-05
-3.5857e-05
-3.73643e-05
-3.89706e-05
-4.06731e-05
-4.24651e-05
-4.4343e-05
-4.63005e-05
-4.83339e-05
-5.04374e-05
-5.26068e-05
-5.4836e-05
-5.71211e-05
-5.94561e-05
-6.18363e-05
-6.42554e-05
-6.67091e-05
-6.91907e-05
-7.16954e-05
-7.42156e-05
-7.67478e-05
-7.92836e-05
-8.18187e-05
-8.43464e-05
-8.68606e-05
-8.93548e-05
-9.18229e-05
-9.42602e-05
-9.66579e-05
-9.90118e-05
-0.000101315
-0.000103566
-0.000105757
-0.000107883
-0.000109941
-0.000111927
-0.000113829
-0.000115653
-0.000117377
-0.000119015
-0.000120538
-0.00012196
-0.000123253
-0.000124417
-0.00012544
-0.000126303
-0.000126998
-0.000127506
-0.000127807
-0.000127894
-0.000127728
-0.000127306
-0.00012662
-0.000125601
-0.000124328
-0.000122678
-0.000120721
-0.000118377
-0.000116016
-0.000112814
-0.0001098
-0.0001062
-0.000102517
-9.85609e-05
-9.44051e-05
-9.01549e-05
-8.57866e-05
-8.13911e-05
-7.69993e-05
-7.26615e-05
-6.84112e-05
-6.42883e-05
-6.03233e-05
-5.65393e-05
-5.29655e-05
-4.96085e-05
-4.64924e-05
-4.36159e-05
-4.09889e-05
-3.86072e-05
-3.64757e-05
-3.45838e-05
-3.29371e-05
-3.15212e-05
-3.03346e-05
-2.93663e-05
-2.86109e-05
-2.80589e-05
-2.77023e-05
-2.75327e-05
-2.7542e-05
-2.77221e-05
-2.80652e-05
-2.85633e-05
-2.92106e-05
-2.99985e-05
-3.09213e-05
-3.19723e-05
-3.31458e-05
-3.4436e-05
-3.58366e-05
-3.73434e-05
-3.89493e-05
-4.06514e-05
-4.2443e-05
-4.43206e-05
-4.62778e-05
-4.83109e-05
-5.04143e-05
-5.25835e-05
-5.48127e-05
-5.70977e-05
-5.94327e-05
-6.18131e-05
-6.42324e-05
-6.66863e-05
-6.91682e-05
-7.16733e-05
-7.41939e-05
-7.67265e-05
-7.92629e-05
-8.17986e-05
-8.43268e-05
-8.68416e-05
-8.93364e-05
-9.18052e-05
-9.4243e-05
-9.66414e-05
-9.8996e-05
-0.0001013
-0.000103551
-0.000105743
-0.00010787
-0.000109929
-0.000111915
-0.000113817
-0.000115642
-0.000117367
-0.000119006
-0.000120531
-0.000121953
-0.000123249
-0.000124415
-0.000125439
-0.000126305
-0.000127002
-0.000127512
-0.000127816
-0.000127906
-0.000127743
-0.000127323
-0.000126638
-0.000125621
-0.000124351
-0.000122703
-0.000120748
-0.000118404
-0.000116052
-0.000112849
-0.00010984
-0.000106242
-0.00010256
-9.86045e-05
-9.44491e-05
-9.0197e-05
-8.58262e-05
-8.14274e-05
-7.70317e-05
-7.26899e-05
-6.84355e-05
-6.43084e-05
-6.03391e-05
-5.65511e-05
-5.29734e-05
-4.96128e-05
-4.64935e-05
-4.36144e-05
-4.09851e-05
-3.86015e-05
-3.64685e-05
-3.45753e-05
-3.29272e-05
-3.15101e-05
-3.03222e-05
-2.93529e-05
-2.85965e-05
-2.80435e-05
-2.7686e-05
-2.75155e-05
-2.7524e-05
-2.77033e-05
-2.80457e-05
-2.85431e-05
-2.91897e-05
-2.99771e-05
-3.08993e-05
-3.19498e-05
-3.31228e-05
-3.44125e-05
-3.58126e-05
-3.7319e-05
-3.89246e-05
-4.06263e-05
-4.24177e-05
-4.4295e-05
-4.6252e-05
-4.8285e-05
-5.03883e-05
-5.25574e-05
-5.47867e-05
-5.70718e-05
-5.9407e-05
-6.17876e-05
-6.42072e-05
-6.66615e-05
-6.91438e-05
-7.16494e-05
-7.41706e-05
-7.67038e-05
-7.92408e-05
-8.17772e-05
-8.43061e-05
-8.68217e-05
-8.93173e-05
-9.17868e-05
-9.42253e-05
-9.66245e-05
-9.898e-05
-0.000101285
-0.000103537
-0.000105729
-0.000107857
-0.000109916
-0.000111903
-0.000113807
-0.000115632
-0.000117358
-0.000118998
-0.000120524
-0.000121948
-0.000123246
-0.000124414
-0.000125441
-0.000126309
-0.000127009
-0.000127521
-0.000127828
-0.00012792
-0.00012776
-0.000127343
-0.00012666
-0.000125647
-0.000124377
-0.000122733
-0.000120781
-0.000118435
-0.000116092
-0.000112889
-0.000109885
-0.000106289
-0.000102607
-9.86525e-05
-9.44974e-05
-9.02428e-05
-8.58691e-05
-8.14663e-05
-7.70663e-05
-7.27198e-05
-6.84608e-05
-6.43288e-05
-6.03547e-05
-5.6562e-05
-5.29798e-05
-4.96153e-05
-4.64924e-05
-4.36102e-05
-4.09783e-05
-3.85926e-05
-3.64578e-05
-3.4563e-05
-3.29134e-05
-3.1495e-05
-3.03058e-05
-2.93353e-05
-2.85778e-05
-2.80238e-05
-2.76654e-05
-2.7494e-05
-2.75017e-05
-2.76803e-05
-2.8022e-05
-2.85188e-05
-2.91648e-05
-2.99516e-05
-3.08733e-05
-3.19234e-05
-3.30959e-05
-3.43852e-05
-3.5785e-05
-3.7291e-05
-3.88964e-05
-4.05978e-05
-4.2389e-05
-4.42661e-05
-4.6223e-05
-4.8256e-05
-5.03592e-05
-5.25284e-05
-5.47579e-05
-5.70432e-05
-5.93787e-05
-6.17596e-05
-6.41797e-05
-6.66345e-05
-6.91173e-05
-7.16235e-05
-7.41455e-05
-7.66794e-05
-7.92173e-05
-8.17546e-05
-8.42843e-05
-8.68008e-05
-8.92973e-05
-9.17677e-05
-9.42071e-05
-9.66073e-05
-9.89636e-05
-0.00010127
-0.000103522
-0.000105715
-0.000107844
-0.000109904
-0.000111892
-0.000113796
-0.000115622
-0.00011735
-0.000118991
-0.000120519
-0.000121945
-0.000123244
-0.000124414
-0.000125444
-0.000126315
-0.000127017
-0.000127533
-0.000127842
-0.000127938
-0.000127781
-0.000127366
-0.000126687
-0.000125676
-0.000124408
-0.000122768
-0.000120818
-0.000118471
-0.000116137
-0.000112935
-0.000109935
-0.000106341
-0.00010266
-9.8705e-05
-9.455e-05
-9.02925e-05
-8.59154e-05
-8.15081e-05
-7.71031e-05
-7.27512e-05
-6.8487e-05
-6.43496e-05
-6.037e-05
-5.65721e-05
-5.29848e-05
-4.96158e-05
-4.64888e-05
-4.36032e-05
-4.09683e-05
-3.85803e-05
-3.64433e-05
-3.45468e-05
-3.28956e-05
-3.14756e-05
-3.02851e-05
-2.93134e-05
-2.85547e-05
-2.79997e-05
-2.76402e-05
-2.74681e-05
-2.74749e-05
-2.76528e-05
-2.79938e-05
-2.84901e-05
-2.91355e-05
-2.99219e-05
-3.08431e-05
-3.18928e-05
-3.30649e-05
-3.43539e-05
-3.57534e-05
-3.72592e-05
-3.88643e-05
-4.05656e-05
-4.23567e-05
-4.42337e-05
-4.61906e-05
-4.82236e-05
-5.0327e-05
-5.24963e-05
-5.4726e-05
-5.70117e-05
-5.93476e-05
-6.1729e-05
-6.41497e-05
-6.66051e-05
-6.90887e-05
-7.15956e-05
-7.41186e-05
-7.66533e-05
-7.91922e-05
-8.17305e-05
-8.42613e-05
-8.67788e-05
-8.92763e-05
-9.17479e-05
-9.41883e-05
-9.65895e-05
-9.89469e-05
-0.000101254
-0.000103508
-0.000105702
-0.000107831
-0.000109893
-0.000111881
-0.000113787
-0.000115613
-0.000117342
-0.000118985
-0.000120515
-0.000121942
-0.000123244
-0.000124417
-0.000125449
-0.000126323
-0.000127029
-0.000127547
-0.00012786
-0.000127959
-0.000127806
-0.000127394
-0.000126717
-0.00012571
-0.000124444
-0.000122807
-0.00012086
-0.000118513
-0.000116187
-0.000112986
-0.000109991
-0.000106398
-0.000102717
-9.87624e-05
-9.46073e-05
-9.03464e-05
-8.59654e-05
-8.1553e-05
-7.71423e-05
-7.27844e-05
-6.85142e-05
-6.43707e-05
-6.0385e-05
-5.65812e-05
-5.29882e-05
-4.96143e-05
-4.64827e-05
-4.35932e-05
-4.09551e-05
-3.85643e-05
-3.6425e-05
-3.45266e-05
-3.28734e-05
-3.14519e-05
-3.02599e-05
-2.92868e-05
-2.85269e-05
-2.79708e-05
-2.76104e-05
-2.74374e-05
-2.74435e-05
-2.76206e-05
-2.7961e-05
-2.84568e-05
-2.91017e-05
-2.98876e-05
-3.08084e-05
-3.18578e-05
-3.30296e-05
-3.43183e-05
-3.57177e-05
-3.72232e-05
-3.88283e-05
-4.05294e-05
-4.23205e-05
-4.41975e-05
-4.61545e-05
-4.81876e-05
-5.02912e-05
-5.24609e-05
-5.4691e-05
-5.69771e-05
-5.93135e-05
-6.16955e-05
-6.41169e-05
-6.65731e-05
-6.90576e-05
-7.15655e-05
-7.40895e-05
-7.66253e-05
-7.91654e-05
-8.17048e-05
-8.42368e-05
-8.67556e-05
-8.92543e-05
-9.17271e-05
-9.41687e-05
-9.65711e-05
-9.89297e-05
-0.000101238
-0.000103493
-0.000105688
-0.000107819
-0.000109881
-0.000111871
-0.000113777
-0.000115605
-0.000117336
-0.00011898
-0.000120511
-0.000121941
-0.000123245
-0.000124421
-0.000125456
-0.000126333
-0.000127042
-0.000127565
-0.000127881
-0.000127984
-0.000127834
-0.000127426
-0.000126752
-0.000125749
-0.000124485
-0.000122851
-0.000120907
-0.00011856
-0.000116241
-0.000113044
-0.000110051
-0.000106461
-0.000102781
-9.8825e-05
-9.46695e-05
-9.04046e-05
-8.60192e-05
-8.1601e-05
-7.71841e-05
-7.28195e-05
-6.85426e-05
-6.43922e-05
-6.03997e-05
-5.65894e-05
-5.29901e-05
-4.96106e-05
-4.64739e-05
-4.35802e-05
-4.09383e-05
-3.85445e-05
-3.64026e-05
-3.4502e-05
-3.28468e-05
-3.14235e-05
-3.02298e-05
-2.92553e-05
-2.84941e-05
-2.79369e-05
-2.75755e-05
-2.74016e-05
-2.7407e-05
-2.75835e-05
-2.79233e-05
-2.84186e-05
-2.9063e-05
-2.98485e-05
-3.0769e-05
-3.18182e-05
-3.29897e-05
-3.42782e-05
-3.56774e-05
-3.71829e-05
-3.87879e-05
-4.04891e-05
-4.22802e-05
-4.41573e-05
-4.61145e-05
-4.81479e-05
-5.02518e-05
-5.24218e-05
-5.46524e-05
-5.69391e-05
-5.92762e-05
-6.1659e-05
-6.40812e-05
-6.65384e-05
-6.90239e-05
-7.15329e-05
-7.40581e-05
-7.65952e-05
-7.91366e-05
-8.16774e-05
-8.42108e-05
-8.67309e-05
-8.92311e-05
-9.17053e-05
-9.41482e-05
-9.6552e-05
-9.89119e-05
-0.000101222
-0.000103478
-0.000105674
-0.000107806
-0.00010987
-0.00011186
-0.000113768
-0.000115597
-0.00011733
-0.000118975
-0.000120509
-0.000121941
-0.000123248
-0.000124427
-0.000125465
-0.000126346
-0.000127059
-0.000127585
-0.000127906
-0.000128012
-0.000127867
-0.000127463
-0.000126792
-0.000125792
-0.00012453
-0.000122901
-0.00012096
-0.000118614
-0.000116301
-0.000113108
-0.000110118
-0.00010653
-0.00010285
-9.88931e-05
-9.4737e-05
-9.04676e-05
-8.60773e-05
-8.16527e-05
-7.72287e-05
-7.28567e-05
-6.85723e-05
-6.44143e-05
-6.04143e-05
-5.65967e-05
-5.29904e-05
-4.96048e-05
-4.64624e-05
-4.35639e-05
-4.09179e-05
-3.85208e-05
-3.63758e-05
-3.44729e-05
-3.28154e-05
-3.13901e-05
-3.01947e-05
-2.92187e-05
-2.84561e-05
-2.78977e-05
-2.75353e-05
-2.73605e-05
-2.73651e-05
-2.7541e-05
-2.78803e-05
-2.83751e-05
-2.90192e-05
-2.98044e-05
-3.07246e-05
-3.17735e-05
-3.2945e-05
-3.42333e-05
-3.56325e-05
-3.71379e-05
-3.8743e-05
-4.04442e-05
-4.22355e-05
-4.41128e-05
-4.60703e-05
-4.8104e-05
-5.02084e-05
-5.23789e-05
-5.46102e-05
-5.68975e-05
-5.92355e-05
-6.16191e-05
-6.40424e-05
-6.65007e-05
-6.89874e-05
-7.14977e-05
-7.40243e-05
-7.65628e-05
-7.91057e-05
-8.16481e-05
-8.4183e-05
-8.67048e-05
-8.92065e-05
-9.16823e-05
-9.41267e-05
-9.6532e-05
-9.88934e-05
-0.000101205
-0.000103462
-0.00010566
-0.000107793
-0.000109859
-0.00011185
-0.00011376
-0.00011559
-0.000117324
-0.000118972
-0.000120508
-0.000121942
-0.000123252
-0.000124434
-0.000125476
-0.000126361
-0.000127078
-0.000127608
-0.000127933
-0.000128044
-0.000127903
-0.000127503
-0.000126836
-0.000125841
-0.000124581
-0.000122956
-0.000121019
-0.000118673
-0.000116366
-0.00011318
-0.000110191
-0.000106605
-0.000102925
-9.89673e-05
-9.48103e-05
-9.05358e-05
-8.61399e-05
-8.17082e-05
-7.72764e-05
-7.28961e-05
-6.86035e-05
-6.44371e-05
-6.04287e-05
-5.6603e-05
-5.29891e-05
-4.95967e-05
-4.6448e-05
-4.35442e-05
-4.08936e-05
-3.84928e-05
-3.63445e-05
-3.44389e-05
-3.27789e-05
-3.13515e-05
-3.01542e-05
-2.91765e-05
-2.84126e-05
-2.78529e-05
-2.74895e-05
-2.73138e-05
-2.73177e-05
-2.74929e-05
-2.78317e-05
-2.83262e-05
-2.89698e-05
-2.97548e-05
-3.06749e-05
-3.17237e-05
-3.2895e-05
-3.41833e-05
-3.55825e-05
-3.70879e-05
-3.86932e-05
-4.03946e-05
-4.21861e-05
-4.40638e-05
-4.60216e-05
-4.80558e-05
-5.01607e-05
-5.23319e-05
-5.45639e-05
-5.68521e-05
-5.9191e-05
-6.15758e-05
-6.40002e-05
-6.64598e-05
-6.89479e-05
-7.14596e-05
-7.39879e-05
-7.6528e-05
-7.90727e-05
-8.16168e-05
-8.41535e-05
-8.6677e-05
-8.91805e-05
-9.16582e-05
-9.41042e-05
-9.65113e-05
-9.88743e-05
-0.000101187
-0.000103447
-0.000105646
-0.000107781
-0.000109847
-0.000111841
-0.000113752
-0.000115584
-0.00011732
-0.000118969
-0.000120508
-0.000121945
-0.000123258
-0.000124444
-0.00012549
-0.000126379
-0.0001271
-0.000127635
-0.000127965
-0.00012808
-0.000127944
-0.000127549
-0.000126885
-0.000125895
-0.000124638
-0.000123018
-0.000121084
-0.000118739
-0.000116436
-0.000113259
-0.00011027
-0.000106688
-0.000103007
-9.9048e-05
-9.48897e-05
-9.06096e-05
-8.62075e-05
-8.17679e-05
-7.73275e-05
-7.29381e-05
-6.86363e-05
-6.44606e-05
-6.0443e-05
-5.66085e-05
-5.2986e-05
-4.95861e-05
-4.64306e-05
-4.3521e-05
-4.08653e-05
-3.84603e-05
-3.63083e-05
-3.43998e-05
-3.2737e-05
-3.13074e-05
-3.01079e-05
-2.91286e-05
-2.83631e-05
-2.78021e-05
-2.74377e-05
-2.72611e-05
-2.72642e-05
-2.74389e-05
-2.77772e-05
-2.82713e-05
-2.89147e-05
-2.96995e-05
-3.06194e-05
-3.16682e-05
-3.28395e-05
-3.41279e-05
-3.55272e-05
-3.70327e-05
-3.86383e-05
-4.03399e-05
-4.21318e-05
-4.40098e-05
-4.59682e-05
-4.8003e-05
-5.01086e-05
-5.22806e-05
-5.45135e-05
-5.68027e-05
-5.91427e-05
-6.15287e-05
-6.39546e-05
-6.64155e-05
-6.89053e-05
-7.14186e-05
-7.39487e-05
-7.64907e-05
-7.90373e-05
-8.15834e-05
-8.41221e-05
-8.66476e-05
-8.91532e-05
-9.16328e-05
-9.40807e-05
-9.64897e-05
-9.88547e-05
-0.00010117
-0.000103431
-0.000105632
-0.000107768
-0.000109837
-0.000111831
-0.000113744
-0.000115578
-0.000117316
-0.000118967
-0.000120509
-0.000121949
-0.000123266
-0.000124455
-0.000125505
-0.000126399
-0.000127125
-0.000127665
-0.000128
-0.00012812
-0.00012799
-0.0001276
-0.00012694
-0.000125956
-0.0001247
-0.000123085
-0.000121155
-0.000118813
-0.000116513
-0.000113347
-0.000110357
-0.000106777
-0.000103097
-9.91357e-05
-9.49758e-05
-9.06894e-05
-8.62805e-05
-8.18321e-05
-7.73822e-05
-7.29828e-05
-6.86709e-05
-6.4485e-05
-6.04572e-05
-5.6613e-05
-5.29812e-05
-4.9573e-05
-4.64099e-05
-4.34938e-05
-4.08326e-05
-3.8423e-05
-3.62669e-05
-3.43553e-05
-3.26894e-05
-3.12573e-05
-3.00556e-05
-2.90744e-05
-2.83073e-05
-2.7745e-05
-2.73794e-05
-2.7202e-05
-2.72044e-05
-2.73785e-05
-2.77164e-05
-2.82103e-05
-2.88534e-05
-2.96381e-05
-3.0558e-05
-3.16067e-05
-3.27782e-05
-3.40667e-05
-3.54662e-05
-3.6972e-05
-3.85779e-05
-4.02799e-05
-4.20723e-05
-4.39508e-05
-4.59099e-05
-4.79453e-05
-5.00518e-05
-5.22247e-05
-5.44586e-05
-5.6749e-05
-5.90904e-05
-6.14778e-05
-6.39052e-05
-6.63679e-05
-6.88595e-05
-7.13747e-05
-7.39068e-05
-7.64508e-05
-7.89997e-05
-8.1548e-05
-8.40889e-05
-8.66166e-05
-8.91244e-05
-9.16062e-05
-9.40563e-05
-9.64673e-05
-9.88344e-05
-0.000101152
-0.000103414
-0.000105618
-0.000107756
-0.000109826
-0.000111823
-0.000113738
-0.000115573
-0.000117314
-0.000118967
-0.000120512
-0.000121955
-0.000123275
-0.000124469
-0.000125523
-0.000126422
-0.000127153
-0.000127698
-0.00012804
-0.000128165
-0.000128041
-0.000127656
-0.000127001
-0.000126022
-0.00012477
-0.00012316
-0.000121234
-0.000118894
-0.000116597
-0.000113443
-0.000110452
-0.000106875
-0.000103194
-9.92311e-05
-9.5069e-05
-9.07758e-05
-8.63592e-05
-8.19012e-05
-7.74409e-05
-7.30305e-05
-6.87075e-05
-6.45103e-05
-6.04713e-05
-5.66165e-05
-5.29744e-05
-4.95571e-05
-4.63857e-05
-4.34626e-05
-4.07952e-05
-3.83805e-05
-3.622e-05
-3.43048e-05
-3.26356e-05
-3.12008e-05
-2.99967e-05
-2.90135e-05
-2.82448e-05
-2.76811e-05
-2.73144e-05
-2.71361e-05
-2.71378e-05
-2.73114e-05
-2.76489e-05
-2.81426e-05
-2.87856e-05
-2.95702e-05
-3.04902e-05
-3.15391e-05
-3.27107e-05
-3.39994e-05
-3.53993e-05
-3.69054e-05
-3.85118e-05
-4.02143e-05
-4.20073e-05
-4.38865e-05
-4.58463e-05
-4.78826e-05
-4.99901e-05
-5.21641e-05
-5.43993e-05
-5.66911e-05
-5.90339e-05
-6.14229e-05
-6.38522e-05
-6.63167e-05
-6.88103e-05
-7.13277e-05
-7.38621e-05
-7.64084e-05
-7.89597e-05
-8.15104e-05
-8.40539e-05
-8.65841e-05
-8.90943e-05
-9.15786e-05
-9.40309e-05
-9.64443e-05
-9.88138e-05
-0.000101133
-0.000103398
-0.000105604
-0.000107744
-0.000109816
-0.000111814
-0.000113731
-0.000115568
-0.000117312
-0.000118967
-0.000120516
-0.000121962
-0.000123287
-0.000124485
-0.000125544
-0.000126448