/*--------------------------------*- C++ -*----------------------------------*\
| =========                 |                                                 |
| \\      /  F ield         | OpenFOAM: The Open Source CFD Toolbox           |
|  \\    /   O peration     | Version:  2006                                  |
|   \\  /    A nd           | Website:  www.openfoam.com                      |
|    \\/     M anipulation  |                                                 |
\*---------------------------------------------------------------------------*/
FoamFile
{
    version     2.0;
    format      ascii;
    class       volSymmTensorField;
    location    "20000";
    object      T1;
}
// * * * * * * * * * * * * * * * * * * * * * * * * * * * * * * * * * * * * * //

dimensions      [0 0 0 0 0 0 0];


internalField   nonuniform List<symmTensor> 
14751
(
(-4.59609e-05 -0.162944 -1.17794e-30 3.45713e-05 -2.34408e-25 0)
(-3.47607e-05 -0.163527 -1.65202e-24 4.23838e-05 1.89333e-21 0)
(-2.33969e-05 -0.164188 1.6859e-23 9.1055e-06 7.16271e-23 -1.20055e-44)
(-5.63252e-06 -0.16424 -2.68701e-23 -8.05175e-06 -8.83813e-23 -3.00561e-44)
(7.54593e-06 -0.164171 1.03074e-23 -2.94943e-05 -8.73918e-23 1.5077e-44)
(2.67438e-05 -0.163611 9.09867e-25 -5.4291e-05 2.06153e-22 -1.91243e-50)
(4.14008e-05 -0.162685 9.92554e-25 -7.12991e-05 6.13679e-21 1.91248e-50)
(5.63122e-05 -0.161457 -6.54896e-24 -9.08704e-05 -6.64064e-24 -5.99558e-46)
(7.06826e-05 -0.159873 -7.3564e-25 -0.000106804 -5.56365e-21 4.30349e-47)
(8.25954e-05 -0.158017 -2.27013e-26 -0.000120635 -8.59967e-23 1.65204e-49)
(9.34197e-05 -0.155908 -5.87401e-26 -0.000132084 -5.06352e-21 -2.87903e-52)
(0.000102257 -0.153576 5.88353e-26 -0.000141479 -2.22743e-25 2.87897e-52)
(0.000109619 -0.151051 -9.26629e-26 -0.000148542 4.49948e-21 -1.01723e-51)
(0.000115296 -0.148396 -8.04861e-25 -0.000153227 2.55777e-22 1.01716e-51)
(0.000119234 -0.145646 1.22329e-23 -0.000156135 -4.89374e-22 8.2025e-44)
(0.00012171 -0.142838 1.16298e-24 -0.000156712 1.5554e-23 2.45534e-47)
(0.000122866 -0.140002 -5.66748e-24 -0.000156296 4.34516e-22 3.63651e-44)
(0.000122621 -0.137161 -5.62807e-25 -0.000153621 -2.12092e-22 2.59883e-47)
(0.000121041 -0.134352 7.68073e-26 -0.000149955 -1.36093e-21 -7.66477e-49)
(0.000118601 -0.131593 -1.14974e-25 -0.000144904 -1.87896e-22 -1.87282e-48)
(0.000115443 -0.128913 6.85301e-25 -0.000139546 3.27282e-25 -2.8938e-48)
(0.00011216 -0.126311 -4.79126e-25 -0.000133663 1.30303e-21 1.36519e-44)
(0.00010864 -0.12379 5.71315e-25 -0.000128159 -1.38954e-21 1.45558e-44)
(0.000104527 -0.121356 -4.98125e-25 -0.000121671 1.47801e-21 1.54795e-44)
(0.000100193 -0.119027 -6.72309e-25 -0.000115547 -1.45184e-22 -1.51783e-45)
(9.57584e-05 -0.116796 5.01559e-25 -0.000109198 4.73817e-25 -4.36763e-48)
(9.116e-05 -0.114673 2.25035e-26 -0.000103053 -4.67073e-31 0)
(8.65267e-05 -0.112655 2.79194e-26 -9.69118e-05 -1.03524e-21 0)
(8.18664e-05 -0.110746 -5.73178e-25 -9.09521e-05 -6.34204e-23 -6.64366e-46)
(7.72911e-05 -0.108943 -1.20183e-25 -8.52018e-05 6.34479e-23 -8.8966e-49)
(7.27538e-05 -0.107247 3.3172e-25 -7.96384e-05 -6.26605e-23 3.29094e-46)
(6.83182e-05 -0.105653 2.97356e-25 -7.42965e-05 -1.03822e-25 5.44308e-49)
(6.39853e-05 -0.104162 -3.15123e-28 -6.91661e-05 -4.42659e-22 0)
(5.9773e-05 -0.10277 2.65488e-25 -6.42647e-05 -4.80161e-22 2.51499e-45)
(5.56619e-05 -0.101474 5.45519e-26 -5.96119e-05 -3.24565e-23 -1.19955e-49)
(5.17187e-05 -0.100274 -6.53527e-26 -5.51344e-05 -5.00788e-22 2.36906e-49)
(4.78089e-05 -0.0991702 2.46848e-26 -5.08292e-05 5.50805e-22 -1.16953e-49)
(4.4101e-05 -0.0981532 3.71029e-27 -4.67365e-05 1.13589e-24 0)
(4.04154e-05 -0.0972229 5.15697e-29 -4.27459e-05 -3.60999e-23 0)
(3.69602e-05 -0.096381 -2.28565e-27 -3.91282e-05 1.94155e-23 0)
(3.34842e-05 -0.0956305 -5.58835e-25 -3.5443e-05 7.16128e-25 9.31504e-48)
(3.00084e-05 -0.0949555 7.94437e-24 -3.17656e-05 -1.49234e-23 2.49222e-45)
(2.67375e-05 -0.0943566 4.17754e-25 -2.82822e-05 -1.64479e-30 0)
(2.33745e-05 -0.0938289 1.96583e-24 -2.47876e-05 1.42668e-24 -5.97705e-47)
(2.0193e-05 -0.0933689 1.5749e-25 -2.14535e-05 1.19777e-23 0)
(1.69325e-05 -0.0929863 -1.8288e-25 -1.81593e-05 -2.07815e-22 -7.20842e-49)
(1.37104e-05 -0.092679 1.94469e-24 -1.48269e-05 -9.41476e-23 3.94575e-45)
(1.04945e-05 -0.0924476 1.80092e-25 -1.1605e-05 1.00294e-22 1.96024e-52)
(7.27026e-06 -0.0922901 -2.67793e-29 -8.3055e-06 -2.17199e-28 2.51886e-53)
(4.02139e-06 -0.0922082 2.13191e-25 -5.06432e-06 -5.63447e-27 -4.28307e-49)
(7.88801e-07 -0.0922028 -1.93343e-24 -1.79914e-06 3.23115e-23 1.35436e-45)
(-2.49286e-06 -0.092271 -2.10422e-25 1.47896e-06 -3.87493e-24 0)
(-5.73469e-06 -0.092412 -9.3352e-27 4.72463e-06 -1.67653e-23 1.01242e-54)
(-9.0352e-06 -0.0926301 9.62619e-27 7.96827e-06 -7.28428e-25 -1.0124e-54)
(-1.23275e-05 -0.0929252 -1.71913e-26 1.12522e-05 3.57683e-23 6.80767e-54)
(-1.56084e-05 -0.0932964 6.82854e-27 1.4434e-05 -1.82768e-23 -6.80761e-54)
(-1.88924e-05 -0.0937439 -2.54927e-25 1.76891e-05 -1.14009e-25 4.49641e-48)
(-2.21934e-05 -0.0942668 1.67569e-24 2.08411e-05 2.64899e-24 -1.15505e-46)
(-2.54022e-05 -0.0948668 1.05844e-24 2.40182e-05 2.62491e-24 -1.10001e-46)
(-2.86921e-05 -0.0955356 8.34544e-24 2.72198e-05 9.74384e-23 -1.62936e-44)
(-3.17775e-05 -0.0962706 1.13088e-24 3.02365e-05 3.42315e-24 -3.79364e-47)
(-3.49726e-05 -0.0970754 2.65056e-24 3.33498e-05 2.64707e-24 -3.06357e-49)
(-3.79809e-05 -0.0979461 -1.64668e-23 3.6146e-05 -1.61798e-21 -5.42295e-43)
(-4.08966e-05 -0.0988948 -2.56514e-24 3.86873e-05 -1.54743e-21 -8.42223e-47)
(-4.39224e-05 -0.0999189 -8.80166e-27 4.15345e-05 1.5917e-21 -3.36773e-49)
(-4.67592e-05 -0.101009 7.48398e-25 4.41568e-05 1.10551e-29 0)
(-4.96608e-05 -0.102164 -4.37117e-24 4.67901e-05 -2.18672e-22 -1.82783e-44)
(-5.25091e-05 -0.103389 -1.07942e-24 4.94241e-05 2.1177e-22 -4.75623e-47)
(-5.53853e-05 -0.104686 1.82045e-24 5.20486e-05 3.50359e-24 -1.46832e-46)
(-5.79973e-05 -0.106045 3.01305e-24 5.44777e-05 1.80728e-21 -7.57294e-44)
(-6.0307e-05 -0.107462 -1.85531e-24 5.6511e-05 -3.66606e-24 -1.53642e-46)
(-6.24319e-05 -0.108928 -4.05052e-25 5.84311e-05 -2.3769e-22 0)
(-6.44566e-05 -0.110441 -5.27053e-26 6.02718e-05 -3.60001e-21 0)
(-6.63401e-05 -0.111999 -2.35615e-25 6.19434e-05 -3.91023e-21 5.67052e-47)
(-6.84696e-05 -0.113598 2.34398e-24 6.39673e-05 -4.96252e-22 2.07375e-44)
(-7.03472e-05 -0.115253 2.33885e-25 6.5931e-05 1.48155e-24 7.39215e-48)
(-7.23231e-05 -0.116953 -6.8335e-26 6.7518e-05 4.10528e-21 -7.15898e-48)
(-7.43e-05 -0.118703 -1.95118e-26 7.00641e-05 4.16446e-21 -1.19111e-50)
(-7.6414e-05 -0.120503 -1.007e-24 7.17606e-05 -5.3112e-22 -1.30062e-46)
(-7.88557e-05 -0.122341 4.32537e-24 7.54968e-05 5.37298e-22 -4.48985e-44)
(-8.10433e-05 -0.124227 5.30866e-24 7.74775e-05 -4.30909e-21 3.61123e-43)
(-8.36095e-05 -0.126158 6.01717e-24 8.13524e-05 1.04046e-23 -9.9726e-46)
(-8.61651e-05 -0.128153 1.07505e-24 8.44987e-05 -5.53895e-22 1.2517e-46)
(-8.88962e-05 -0.130189 -9.62763e-25 8.84423e-05 1.10723e-21 0)
(-9.17341e-05 -0.132281 4.63087e-24 9.27295e-05 -5.4657e-22 4.59359e-44)
(-9.4431e-05 -0.134432 7.686e-24 9.6717e-05 -8.94573e-21 7.49564e-43)
(-9.70873e-05 -0.136636 -4.81514e-24 0.000101058 2.72888e-22 2.28715e-44)
(-9.94826e-05 -0.138887 -1.03507e-24 0.000105289 -2.80661e-22 0)
(-0.00010149 -0.14117 0 0.000108733 0 0)
(-0.000103294 -0.143487 -2.00741e-24 0.000113146 1.4026e-22 0)
(-0.00010334 -0.145813 1.22041e-23 0.000114662 -1.21342e-22 2.03373e-44)
(-0.000103082 -0.148116 1.91964e-24 0.000115844 -8.93425e-21 5.00898e-48)
(-0.000101796 -0.150428 8.85438e-25 0.000118012 -3.33601e-23 3.51473e-46)
(-9.85702e-05 -0.152647 6.90708e-26 0.000113183 2.05263e-22 -7.01683e-48)
(-9.58369e-05 -0.154782 -1.64688e-25 0.000114614 -1.34873e-22 1.66225e-51)
(-8.87285e-05 -0.156826 5.54654e-25 0.000105016 -4.18796e-21 -1.66226e-51)
(-7.61005e-05 -0.158605 -3.32666e-24 9.45668e-05 -3.77255e-23 -1.57322e-45)
(-7.46812e-05 -0.160115 -4.52139e-25 7.85019e-05 -3.2475e-23 -7.61724e-48)
(-6.96937e-05 -0.161758 7.29183e-27 9.10524e-05 -8.56816e-34 0)
(-0.000306471 -0.455627 2.3224e-22 0.000250763 -6.58905e-25 -3.58522e-45)
(-0.000210305 -0.456537 -2.44972e-21 0.000239351 -4.83976e-21 2.74314e-42)
(-0.000112227 -0.457499 -3.50267e-22 8.42489e-05 4.35267e-22 8.00976e-45)
(2.81864e-05 -0.457279 1.16087e-22 -2.64565e-05 -5.4671e-22 1.09415e-43)
(0.000139393 -0.456615 1.30536e-22 -0.000145681 -3.64395e-20 -1.89686e-43)
(0.000283712 -0.454905 5.30897e-22 -0.000291316 3.50418e-20 6.30099e-42)
(0.000403614 -0.452248 -9.64136e-21 -0.000400932 -1.56778e-20 2.5948e-41)
(0.000521054 -0.448826 -1.44285e-21 -0.000519986 7.06173e-23 1.55119e-45)
(0.00063349 -0.444564 9.40785e-21 -0.000625163 1.39217e-20 2.75593e-41)
(0.00072786 -0.439612 1.63619e-22 -0.000716963 2.8154e-20 5.43949e-42)
(0.000812531 -0.434036 9.27789e-21 -0.000796939 -1.49746e-20 6.20778e-40)
(0.000881341 -0.42792 1.21055e-21 -0.000863369 8.14929e-22 0)
(0.000938488 -0.421328 -8.91167e-21 -0.000917534 -1.08978e-20 3.01704e-41)
(0.000981974 -0.41443 -1.04208e-21 -0.000958248 6.82155e-23 -8.07285e-43)
(0.00101173 -0.407325 7.53205e-22 -0.000987093 -1.98465e-20 2.30749e-42)
(0.00103035 -0.400093 1.07186e-22 -0.00100299 -1.27356e-21 -3.40093e-42)
(0.00103764 -0.392827 -7.91322e-22 -0.00101083 9.25706e-23 2.38586e-42)
(0.00103393 -0.385567 1.53682e-22 -0.00100566 -6.05765e-23 -8.04998e-43)
(0.00101959 -0.378417 3.58384e-21 -0.000992598 2.68871e-21 4.21213e-42)
(0.000998187 -0.371442 5.41652e-22 -0.000971089 9.30206e-22 5.85764e-42)
(0.000970543 -0.364725 1.91473e-22 -0.000945567 1.5038e-24 9.05705e-48)
(0.00094219 -0.358283 -3.88583e-21 -0.000917404 -2.17313e-21 1.35179e-41)
(0.000912027 -0.352066 3.99121e-21 -0.000889549 1.96291e-21 1.77711e-41)
(0.000877762 -0.346072 -4.06522e-21 -0.000855442 9.78279e-21 1.51839e-40)
(0.000841136 -0.34034 1.3779e-22 -0.000820844 5.88639e-21 -4.99599e-42)
(0.00080369 -0.33487 1.75005e-23 -0.000784098 -7.0195e-22 1.29236e-47)
(0.000764918 -0.329673 -1.36406e-22 -0.000746774 6.25095e-21 0)
(0.000725761 -0.324752 3.29946e-21 -0.000708532 2.33628e-21 3.75521e-42)
(0.000686294 -0.320109 2.94974e-22 -0.00067022 -3.5576e-22 3.34733e-45)
(0.000647333 -0.315741 -1.49281e-22 -0.000632256 3.53033e-22 -1.62546e-45)
(0.000608697 -0.311645 1.35502e-22 -0.000594646 5.20469e-21 1.14721e-43)
(0.000570768 -0.307821 -5.23058e-23 -0.000557688 -5.56152e-21 7.10837e-43)
(0.000533593 -0.304257 1.32772e-21 -0.000521468 -3.4628e-21 2.38502e-41)
(0.000497532 -0.300953 1.49765e-21 -0.000486185 -1.85057e-21 1.60487e-41)
(0.000462142 -0.297897 6.63674e-23 -0.000451901 -1.22056e-23 4.76738e-43)
(0.00042799 -0.295094 1.48823e-21 -0.000418394 1.0232e-21 1.43087e-42)
(0.00039428 -0.292543 -1.39704e-21 -0.000385691 -1.22392e-21 1.45428e-42)
(0.000362062 -0.290223 -7.69351e-23 -0.000354086 3.14049e-21 -5.4574e-43)
(0.000329983 -0.288128 6.86594e-23 -0.000323005 -1.42207e-23 3.2499e-44)
(0.000299691 -0.286272 -2.77017e-23 -0.00029339 7.6745e-24 9.38342e-45)
(0.00026929 -0.284654 -2.28943e-24 -0.000263581 1.05804e-22 -8.83149e-45)
(0.000238985 -0.28324 1.19628e-23 -0.000234407 -1.76048e-22 -6.91546e-45)
(0.000210164 -0.282016 6.86145e-25 -0.00020592 1.09885e-22 0)
(0.000180624 -0.28098 -3.37587e-24 -0.000177593 -1.85999e-21 1.52034e-46)
(0.000152538 -0.280118 -4.40371e-23 -0.000149842 -1.95104e-21 -4.54728e-44)
(0.000123867 -0.279459 3.48228e-22 -0.000122065 4.27183e-22 1.81144e-43)
(9.5442e-05 -0.278999 2.00502e-22 -9.41884e-05 -2.38333e-23 1.67664e-43)
(6.70421e-05 -0.278739 -1.52511e-22 -6.66711e-05 -2.02675e-22 3.37587e-44)
(3.86307e-05 -0.278675 -1.32848e-23 -3.87899e-05 -4.49098e-23 0)
(9.96708e-06 -0.278817 3.52968e-24 -1.10128e-05 9.31153e-24 0)
(-1.85906e-05 -0.279161 -4.25605e-23 1.69261e-05 -3.99851e-22 -5.53721e-44)
(-4.74711e-05 -0.2797 -1.83904e-24 4.49749e-05 -1.56454e-24 -1.32195e-45)
(-7.60707e-05 -0.280427 1.61573e-23 7.30453e-05 -9.4704e-23 4.06323e-45)
(-0.000105134 -0.281357 7.01683e-24 0.000101267 1.42914e-21 -1.21916e-44)
(-0.000133974 -0.282486 -3.39551e-23 0.000129632 1.05408e-22 1.21954e-44)
(-0.000162797 -0.283817 1.11968e-23 0.000157641 3.28622e-21 -4.06711e-45)
(-0.00019157 -0.285344 3.72784e-24 0.000185923 7.71566e-24 0)
(-0.000220322 -0.28707 -3.67649e-24 0.000213802 -1.81901e-22 2.83088e-46)
(-0.000248352 -0.288987 1.07385e-23 0.000241589 -4.15275e-22 2.80732e-46)
(-0.000276876 -0.291078 -8.68786e-23 0.000268996 5.72214e-22 1.65048e-43)
(-0.000303658 -0.293331 -1.72806e-23 0.000295661 -1.85923e-25 -1.18014e-43)
(-0.000331089 -0.295756 -2.23752e-22 0.000322196 8.10715e-21 -1.57647e-42)
(-0.000357108 -0.298347 1.37718e-21 0.00034784 2.60443e-21 1.12174e-41)
(-0.000382199 -0.301135 1.9211e-21 0.000372501 -4.64905e-21 4.62228e-41)
(-0.000407906 -0.304115 -1.29953e-21 0.000397637 -4.60785e-21 -2.79695e-42)
(-0.000432148 -0.307258 -2.42291e-22 0.000421514 -6.42636e-21 0)
(-0.000456678 -0.310561 1.78614e-22 0.000445373 -1.88246e-20 9.68283e-44)
(-0.000480712 -0.314039 -1.07972e-22 0.000469341 -1.06071e-21 -4.97095e-44)
(-0.000504939 -0.317702 2.05482e-22 0.000492881 1.17445e-21 3.79568e-46)
(-0.000527074 -0.321532 -1.61072e-21 0.000514872 -2.29747e-20 -9.79259e-41)
(-0.000546843 -0.325524 -2.62932e-22 0.000534155 1.93357e-20 3.98897e-46)
(-0.000564471 -0.329641 -3.16686e-22 0.000551652 1.97017e-20 7.21202e-42)
(-0.00058088 -0.333851 2.70505e-21 0.000567908 6.26505e-21 2.62729e-41)
(-0.000596399 -0.338142 3.79636e-21 0.000583069 1.14814e-20 -1.34355e-41)
(-0.000612923 -0.342512 8.24003e-22 0.000599283 2.5075e-21 1.78009e-42)
(-0.000627614 -0.346984 2.81061e-22 0.000614721 2.64402e-21 -1.83989e-42)
(-0.000643246 -0.351546 -3.00083e-21 0.000628579 -9.48079e-21 1.44087e-41)
(-0.000658102 -0.356186 -4.19578e-21 0.000645396 3.43739e-20 4.8698e-40)
(-0.000674296 -0.360912 -1.30698e-22 0.000658853 2.63989e-21 -1.21418e-43)
(-0.00069196 -0.365667 -8.38138e-22 0.000678706 -2.57036e-21 2.41726e-43)
(-0.000708315 -0.370493 3.68731e-21 0.000691997 1.02352e-20 1.27087e-41)
(-0.00072616 -0.375368 4.78057e-22 0.000711359 4.92748e-20 2.33774e-45)
(-0.00074409 -0.380334 5.08126e-22 0.000727365 4.36754e-20 -2.11124e-42)
(-0.00076273 -0.38534 -7.27256e-22 0.000745366 3.25578e-21 4.36051e-42)
(-0.00078134 -0.390407 -9.22286e-22 0.000763675 -3.02524e-21 -2.37379e-42)
(-0.000798399 -0.395551 8.25147e-21 0.000779494 2.3193e-20 2.192e-41)
(-0.000813881 -0.400745 9.2155e-22 0.000794882 -5.09907e-25 -1.27892e-43)
(-0.000826568 -0.405971 1.63283e-22 0.000807548 -3.06406e-21 6.57467e-44)
(-0.000835277 -0.411189 5.33935e-23 0.000815045 1.50039e-21 0)
(-0.000839932 -0.416368 -1.11138e-22 0.00082199 7.7844e-22 6.75078e-44)
(-0.000832463 -0.421469 -1.07086e-21 0.000813762 -4.8497e-20 -1.24013e-43)
(-0.000819588 -0.426427 9.02392e-21 0.000800972 2.23787e-20 5.41472e-41)
(-0.000798002 -0.431239 1.1722e-21 0.000786344 4.71331e-20 -2.24884e-42)
(-0.000763963 -0.435809 -1.85582e-22 0.000744036 -4.68404e-20 1.50805e-43)
(-0.000725585 -0.440001 -4.29345e-22 0.000718704 6.97611e-22 -6.66761e-44)
(-0.000660259 -0.443947 4.70228e-21 0.000645438 9.75226e-21 1.96089e-41)
(-0.000566969 -0.447261 5.45188e-22 0.000567855 -2.21253e-20 2.03591e-42)
(-0.000538019 -0.450293 3.4633e-23 0.000498401 -3.46998e-24 1.98792e-44)
(-0.000471289 -0.453161 3.92188e-24 0.00050909 -1.65787e-25 0)
(-0.00104134 -1.17187 -6.13494e-22 0.000892213 2.12978e-25 9.08996e-45)
(-0.000604051 -1.17272 6.61466e-21 0.000726998 -1.55554e-20 -7.32405e-42)
(-0.000158505 -1.1743 8.88624e-23 0.000129836 -9.67881e-20 -3.01924e-46)
(0.000436066 -1.17478 -3.98121e-21 -0.000354842 -9.43959e-20 3.01912e-46)
(0.000936588 -1.17481 8.24973e-20 -0.000860027 -9.52132e-20 8.30936e-39)
(0.00152403 -1.17364 -7.54118e-20 -0.001449 -8.51618e-20 4.55403e-40)
(0.00205993 -1.17028 2.19403e-20 -0.00194832 -2.17813e-19 -8.64164e-41)
(0.00256918 -1.16559 3.70642e-21 -0.00246752 1.59578e-19 7.07307e-42)
(0.00305909 -1.15939 -2.17925e-20 -0.00294455 -1.03878e-19 -9.6394e-41)
(0.00348207 -1.15181 -7.85405e-20 -0.0033698 7.96993e-20 6.64244e-39)
(0.00386195 -1.14295 4.71102e-20 -0.00374613 -3.18645e-20 3.13361e-39)
(0.00417616 -1.13296 -1.73612e-21 -0.00406313 1.56192e-22 -4.92988e-41)
(0.00444101 -1.12196 2.43277e-20 -0.00432949 -3.88679e-20 -8.23891e-41)
(0.00464673 -1.11024 -1.111e-21 -0.00453828 -5.52181e-21 0)
(0.00479398 -1.09803 6.68314e-20 -0.00469382 5.6727e-20 -9.95292e-41)
(0.00489279 -1.08542 6.45258e-21 -0.00479409 -4.43137e-22 1.61463e-40)
(0.00493825 -1.07263 1.80494e-22 -0.00485117 -3.47442e-21 0)
(0.00493667 -1.05971 4.0019e-22 -0.00485174 9.08799e-20 0)
(0.00488464 -1.0469 -7.29724e-21 -0.00481011 -6.69252e-20 -5.97134e-41)
(0.00479717 -1.03436 -3.84749e-21 -0.00472661 -8.24365e-20 3.17327e-41)
(0.00467756 -1.02236 -5.32662e-22 -0.00461555 4.54252e-21 0)
(0.0045546 -1.01104 7.41589e-21 -0.00449335 -2.02912e-20 -3.90399e-41)
(0.00442054 -1.00009 -5.1001e-21 -0.00436995 7.97729e-20 -4.92708e-41)
(0.00426941 -0.989431 -5.05122e-20 -0.00422023 -3.7772e-20 -3.89743e-40)
(0.00410313 -0.979209 -3.1565e-20 -0.00406254 -1.06945e-20 1.0147e-40)
(0.00393076 -0.969406 3.12001e-21 -0.00389351 -2.11543e-21 -4.42142e-41)
(0.00374991 -0.960072 -3.17076e-20 -0.00371836 -4.17305e-20 -4.7393e-40)
(0.00356494 -0.951209 -1.03193e-20 -0.00353709 7.64646e-21 -1.05532e-41)
(0.00337656 -0.942846 1.09529e-21 -0.00335316 -1.325e-21 -3.62065e-45)
(0.00318848 -0.934986 -5.84725e-22 -0.00316849 -4.30392e-22 3.61758e-45)
(0.00300049 -0.927634 -2.8667e-20 -0.00298371 -3.91666e-20 -5.34662e-40)
(0.00281397 -0.920787 2.74751e-20 -0.00280016 4.14225e-20 -5.15369e-40)
(0.00263001 -0.914451 2.06208e-20 -0.00261867 1.48426e-20 -1.64544e-40)
(0.00244928 -0.908612 1.10758e-20 -0.00244001 9.64354e-21 -3.65964e-41)
(0.002271 -0.903282 4.64768e-22 -0.00226457 1.16135e-21 0)
(0.00209814 -0.898456 -3.74911e-21 -0.00209234 1.93615e-20 -3.4727e-42)
(0.00192588 -0.894161 4.45591e-21 -0.00192266 1.01361e-20 -6.69775e-42)
(0.00175949 -0.890344 -1.34411e-20 -0.00175715 7.88406e-21 1.83773e-40)
(0.00159447 -0.88701 -5.1107e-22 -0.00159372 1.30341e-21 0)
(0.00143603 -0.884183 1.54119e-23 -0.00143596 1.61988e-20 0)
(0.0012769 -0.881875 -3.62149e-22 -0.00127714 1.12912e-21 -1.11666e-43)
(0.00111902 -0.880011 6.52778e-22 -0.00112142 -6.37774e-22 2.18683e-43)
(0.000966506 -0.878552 -5.98184e-22 -0.000968307 9.60119e-21 -1.07014e-43)
(0.000811161 -0.877506 5.97501e-21 -0.000815345 4.30962e-21 5.20282e-42)
(0.00066182 -0.876848 6.6896e-21 -0.000665066 -7.67961e-22 3.34148e-41)
(0.000509815 -0.876635 -6.617e-22 -0.000514303 1.56644e-21 -3.85819e-43)
(0.000359155 -0.876864 -6.14663e-22 -0.000363405 1.27883e-21 -5.01684e-43)
(0.000208141 -0.877547 4.02284e-22 -0.000213602 -1.10543e-21 -1.72879e-43)
(5.72324e-05 -0.878681 1.41578e-22 -6.25632e-05 -1.54351e-23 7.55325e-44)
(-9.42793e-05 -0.880283 -7.78565e-23 8.84612e-05 -4.86066e-23 -2.26503e-45)
(-0.000245267 -0.882337 9.05988e-22 0.000240225 5.38773e-22 3.95647e-43)
(-0.000398219 -0.884772 5.08685e-23 0.000392467 3.56024e-21 0)
(-0.000549598 -0.887635 3.95936e-22 0.000544439 1.1081e-22 -6.81596e-43)
(-0.000701969 -0.890931 -3.13387e-21 0.00069676 -3.32709e-21 1.85533e-42)
(-0.000853142 -0.894664 1.44082e-22 0.000848971 2.39611e-22 7.725e-43)
(-0.00100392 -0.898824 -6.71825e-21 0.000999416 -7.48314e-21 1.25071e-41)
(-0.00115316 -0.903396 -5.74968e-22 0.00114984 1.09185e-21 -3.5497e-42)
(-0.00130128 -0.908377 2.54145e-22 0.00129779 -2.37112e-21 1.99799e-43)
(-0.00144483 -0.913731 7.69155e-22 0.00144373 1.92631e-20 9.10909e-46)
(-0.00158957 -0.919411 -5.9493e-22 0.00158714 -3.77137e-20 -9.11017e-46)
(-0.00172523 -0.925374 1.24325e-21 0.00172545 -1.22658e-21 0)
(-0.00186186 -0.93164 -1.33695e-20 0.00186157 -1.49872e-20 1.08471e-40)
(-0.00199163 -0.938192 -5.44816e-21 0.00199288 1.00015e-20 -4.66344e-41)
(-0.00211516 -0.945077 7.87586e-21 0.00211822 3.29318e-20 -2.22973e-40)
(-0.00223858 -0.952267 5.26105e-21 0.00224283 3.18775e-20 5.47053e-41)
(-0.00235499 -0.959689 8.77892e-21 0.00236078 2.05621e-20 -1.74225e-40)
(-0.00247065 -0.96733 2.99536e-20 0.00247676 4.24722e-20 3.59367e-40)
(-0.0025817 -0.975194 4.58626e-21 0.00259075 -8.13801e-21 9.65472e-45)
(-0.00269309 -0.983327 -5.00051e-21 0.0027024 -9.12272e-20 -9.66192e-45)
(-0.0027949 -0.991711 3.59179e-20 0.00280694 2.74173e-20 7.87134e-40)
(-0.00288471 -1.00038 -2.2117e-20 0.00289811 -4.47846e-20 1.9872e-40)
(-0.00296039 -1.00917 -3.10971e-20 0.00297569 -4.3987e-20 2.01332e-40)
(-0.00302713 -1.01792 -7.37042e-21 0.00304388 3.20432e-20 -2.5502e-40)
(-0.00308946 -1.02659 -1.32504e-20 0.0031063 3.60795e-20 1.99116e-40)
(-0.00315234 -1.03516 -4.68615e-21 0.00316911 4.75981e-21 4.1672e-41)
(-0.00320589 -1.04366 1.09113e-21 0.00322633 7.12968e-22 -4.1728e-41)
(-0.00326295 -1.05208 1.43566e-20 0.00327803 -3.6764e-20 -4.0018e-41)
(-0.00331293 -1.0603 -5.06816e-20 0.00333528 -1.54133e-19 -2.5669e-39)
(-0.00336906 -1.06841 -8.58629e-21 0.00338242 1.93901e-20 7.22522e-44)
(-0.00342412 -1.0762 4.53123e-21 0.00344572 -5.32103e-21 -7.23494e-44)
(-0.00347797 -1.08383 -2.78589e-21 0.00348908 2.74364e-19 -3.76976e-41)
(-0.0035296 -1.09118 -6.44238e-20 0.00354649 -1.07509e-19 1.9182e-39)
(-0.00358213 -1.09837 -6.96638e-20 0.00359258 -3.3031e-19 -9.9192e-39)
(-0.00363246 -1.10529 -1.00942e-20 0.00364114 -1.58775e-20 8.54587e-44)
(-0.00367822 -1.11196 6.56298e-21 0.00368505 -3.9314e-21 -8.55622e-44)
(-0.00371524 -1.11848 -2.36358e-20 0.00371629 6.98467e-20 3.10599e-41)
(-0.00373969 -1.12476 -4.0168e-21 0.00373799 -2.30263e-19 -1.07825e-40)
(-0.00374893 -1.13076 3.83952e-21 0.0037432 -5.90767e-21 1.69924e-41)
(-0.00373747 -1.13644 -1.33688e-21 0.00372262 2.79216e-22 -5.67933e-42)
(-0.00369864 -1.14167 -7.29577e-21 0.00368526 2.39108e-19 -8.93557e-41)
(-0.0036174 -1.1465 7.6322e-20 0.00359295 1.14627e-19 8.18941e-40)
(-0.00350349 -1.15076 -1.21975e-20 0.00347011 7.49339e-20 -1.06934e-40)
(-0.00334872 -1.15442 -8.25071e-20 0.00332689 -1.12733e-19 5.46736e-40)
(-0.00315837 -1.15768 6.86781e-20 0.00309984 1.10383e-19 5.82986e-40)
(-0.00291918 -1.16001 6.20759e-21 0.00289387 2.31601e-19 2.0296e-41)
(-0.0026131 -1.16224 -1.40094e-20 0.00255471 -8.0724e-20 -6.74561e-41)
(-0.00222041 -1.16376 3.63438e-20 0.00221127 5.54188e-20 7.26654e-41)
(-0.00202795 -1.16591 2.66591e-21 0.00191007 -5.45599e-20 1.47097e-52)
(-0.00164543 -1.1679 1.51501e-25 0.00177829 2.07951e-22 -1.47159e-52)
(-0.00205779 -2.30799 -1.77484e-23 0.00175325 3.56729e-24 2.13757e-51)
(-0.000745067 -2.30649 -9.63448e-21 0.00100919 3.15324e-20 -2.14069e-51)
(0.000570154 -2.30755 2.02296e-19 -0.000642208 1.77934e-19 7.40692e-40)
(0.00223316 -2.30913 2.18884e-19 -0.00208975 1.73754e-19 1.62934e-39)
(0.00369015 -2.31127 2.66115e-19 -0.00357597 2.10147e-19 -3.13484e-40)
(0.00528131 -2.31365 1.61952e-19 -0.00518591 -5.55694e-19 -5.98879e-40)
(0.00684529 -2.31334 4.55512e-19 -0.00668052 1.05032e-18 -5.11074e-38)
(0.00829336 -2.31159 -4.29087e-19 -0.00816125 -2.92059e-19 4.4565e-39)
(0.00969986 -2.30761 4.18209e-19 -0.00954296 1.85875e-19 4.11154e-39)
(0.0109374 -2.30217 -2.59563e-19 -0.0107933 -4.48451e-19 -2.3978e-38)
(0.0120574 -2.29535 2.58639e-19 -0.0119071 3.45898e-19 -1.93284e-38)
(0.0129985 -2.28733 7.96349e-21 -0.0128553 -5.29054e-21 0)
(0.0137951 -2.27812 -4.39156e-22 -0.0136586 6.95864e-20 0)
(0.0144292 -2.26803 1.77111e-20 -0.0142972 4.57765e-19 -3.28192e-40)
(0.0149014 -2.25734 -1.6739e-19 -0.0147824 1.37685e-19 1.9121e-40)
(0.01524 -2.24609 -6.85605e-21 -0.0151132 -3.60313e-21 0)
(0.0154102 -2.2346 1.09762e-20 -0.0153059 2.34273e-20 0)
(0.0154498 -2.22278 -4.05676e-19 -0.0153457 -1.75691e-19 2.05764e-39)
(0.0153403 -2.21093 3.47883e-19 -0.0152511 1.35283e-19 -1.79417e-40)
(0.0151136 -2.19926 4.19161e-19 -0.0150223 -2.06617e-20 1.95462e-38)
(0.0147686 -2.18837 -1.14042e-20 -0.0146765 5.69463e-22 -5.46977e-41)
(0.0144095 -2.17889 5.0215e-20 -0.0143055 1.6199e-20 -6.9065e-40)
(0.0140171 -2.16983 -3.77153e-19 -0.0139359 -2.78041e-19 -8.93324e-39)
(0.0135753 -2.16094 1.07535e-19 -0.013495 -6.19818e-20 4.6029e-40)
(0.013076 -2.1524 6.20861e-20 -0.0130143 -5.24089e-20 -3.30942e-40)
(0.012551 -2.14422 5.97496e-21 -0.0124947 1.21598e-20 9.93707e-41)
(0.0119908 -2.13648 2.46819e-19 -0.0119474 6.22242e-21 3.31561e-39)
(0.0114126 -2.12917 1.5519e-20 -0.0113764 -3.06743e-20 2.27361e-41)
(0.010818 -2.12235 -9.51953e-21 -0.0107902 -5.13662e-21 -2.27615e-41)
(0.0102162 -2.11606 -5.61509e-21 -0.0101952 1.14254e-19 0)
(0.00960919 -2.1103 2.43802e-19 -0.00959483 7.01384e-20 7.10535e-40)
(0.00900136 -2.10506 -2.37621e-19 -0.008993 4.91428e-20 6.31391e-39)
(0.0083968 -2.10037 -5.88029e-20 -0.00839334 2.30553e-20 -2.70483e-40)
(0.00779764 -2.09624 -2.81923e-20 -0.00779786 1.35165e-20 -2.89222e-43)
(0.00720186 -2.09273 -3.39048e-21 -0.00720856 1.80591e-22 2.31462e-41)
(0.0066196 -2.08977 -8.17838e-20 -0.00662726 2.45475e-20 1.45875e-39)
(0.00603777 -2.08748 -8.45227e-20 -0.00605066 -1.74863e-20 1.58706e-40)
(0.00547029 -2.08576 -5.02061e-20 -0.00548413 -5.40961e-20 -7.65505e-40)
(0.0049062 -2.08465 -3.12818e-21 -0.00492341 2.1138e-22 2.58189e-41)
(0.0043584 -2.0842 -7.99866e-20 -0.00437654 -6.39288e-20 -5.80647e-40)
(0.00380826 -2.08435 -6.9366e-21 -0.00382763 -2.75811e-21 2.96048e-41)
(0.00326369 -2.08512 3.47381e-21 -0.00328707 -3.63402e-20 -8.85963e-43)
(0.0027332 -2.08636 -3.99226e-20 -0.00275335 -1.84487e-20 5.02957e-41)
(0.00219301 -2.08821 -1.61276e-20 -0.00221975 1.50094e-20 -1.21307e-41)
(0.00167085 -2.09052 4.82037e-21 -0.00169526 2.66642e-20 -1.42999e-40)
(0.00114322 -2.09342 1.17563e-21 -0.00117023 1.72509e-20 -1.49828e-43)
(0.000620727 -2.0969 -1.62356e-21 -0.000647082 1.26221e-20 2.92881e-43)
(9.7472e-05 -2.10098 4.71018e-22 -0.000126595 -1.1265e-20 -1.43046e-43)
(-0.000423682 -2.10566 1.91261e-23 0.000396121 3.3286e-22 0)
(-0.000947229 -2.11098 2.68908e-22 0.000918472 3.37473e-22 -8.67238e-44)
(-0.00146701 -2.11661 -1.4349e-21 0.00144067 -3.39414e-21 -4.80324e-43)
(-0.00198986 -2.12276 -1.02727e-20 0.0019622 -6.91879e-21 3.37327e-42)
(-0.0025057 -2.1294 -1.07482e-21 0.00247946 -1.44592e-20 0)
(-0.00302111 -2.1366 7.38935e-21 0.00299424 -1.13632e-20 -4.50058e-42)
(-0.00352894 -2.14429 -1.82442e-21 0.00350432 -5.6018e-22 -6.72323e-42)
(-0.00403095 -2.15246 1.58987e-20 0.00400609 7.78193e-21 -1.44009e-41)
(-0.00452351 -2.16106 -1.27151e-21 0.00450158 6.80952e-20 -1.83236e-42)
(-0.0050087 -2.17007 7.12936e-21 0.00498524 7.58481e-20 -2.61784e-41)
(-0.0054747 -2.17941 -4.86541e-20 0.00545653 -3.01056e-20 1.50403e-40)
(-0.00593822 -2.18906 7.80632e-20 0.005916 6.14235e-20 3.58002e-40)
(-0.00637009 -2.19885 4.97507e-21 0.00635326 -7.5306e-20 6.1208e-41)
(-0.00679529 -2.20881 2.50767e-20 0.00677763 -6.2191e-20 -2.6781e-40)
(-0.00719596 -2.21891 1.46776e-20 0.0071806 -2.58369e-20 2.15416e-41)
(-0.00757237 -2.22913 -2.31648e-20 0.00755983 2.18843e-19 4.37068e-41)
(-0.00793778 -2.23943 -9.01001e-20 0.00792743 -5.337e-20 5.50068e-40)
(-0.00827886 -2.24973 -3.10863e-20 0.00827109 5.03395e-20 6.03051e-41)
(-0.00860827 -2.25993 -6.6463e-20 0.00860043 1.29747e-19 -5.83642e-40)
(-0.00891661 -2.26996 -9.40849e-21 0.0089151 2.10712e-19 6.17361e-40)
(-0.00922324 -2.27997 1.74148e-19 0.00922273 1.69902e-19 5.58674e-40)
(-0.00950563 -2.29001 -5.84151e-20 0.00951731 1.75126e-19 -1.14746e-39)
(-0.00975124 -2.30034 5.10462e-20 0.00977505 2.64108e-19 -4.44272e-40)
(-0.00994137 -2.31056 7.20017e-20 0.00997495 -1.20459e-19 -4.49038e-40)
(-0.0100964 -2.32028 6.87689e-21 0.0101348 -1.04732e-19 0)
(-0.0102353 -2.32942 -1.29972e-23 0.0102756 -6.1206e-20 0)
(-0.0103652 -2.33788 -6.71035e-24 0.010407 -1.7989e-20 0)
(-0.010467 -2.34565 -6.9884e-24 0.0105192 -1.78768e-20 0)
(-0.0105762 -2.35283 -1.60668e-20 0.010618 4.92688e-19 0)
(-0.0106539 -2.35911 1.5997e-19 0.0107161 -2.43742e-19 4.07893e-39)
(-0.0107533 -2.36467 -4.70892e-21 0.0107962 -4.16825e-19 -1.40344e-39)
(-0.0108287 -2.3692 2.73716e-20 0.0108946 -9.60452e-21 0)
(-0.0109136 -2.37295 -3.99548e-19 0.0109576 -5.02295e-19 7.54882e-39)
(-0.010969 -2.37567 7.15862e-20 0.0110306 -8.0981e-19 -2.61269e-39)
(-0.0110289 -2.37762 5.25865e-19 0.0110806 1.34622e-19 4.40666e-38)
(-0.0110686 -2.3786 5.06836e-20 0.011122 -1.93317e-20 4.15609e-39)
(-0.0110883 -2.37866 1.07738e-20 0.0111392 1.76939e-20 9.00098e-41)
(-0.0110785 -2.37799 -1.43897e-20 0.0111187 -1.617e-19 1.4088e-39)
(-0.0110166 -2.37651 3.7833e-19 0.0110581 4.43061e-19 1.21329e-39)
(-0.0109069 -2.37416 3.7793e-20 0.0109442 9.65933e-19 1.40099e-39)
(-0.0107324 -2.37094 2.72155e-20 0.0107542 -9.08035e-21 0)
(-0.010461 -2.36665 -3.91598e-19 0.0104943 -4.43985e-19 5.7003e-39)
(-0.0101008 -2.36165 -1.82714e-19 0.0101099 3.13001e-19 -1.02098e-39)
(-0.00963383 -2.35548 -2.48052e-20 0.00962277 7.76757e-19 0)
(-0.00903705 -2.34819 1.71681e-19 0.00905957 -2.9712e-19 -1.22883e-39)
(-0.00838898 -2.34073 -1.24319e-19 0.00832995 2.93043e-19 -1.23775e-39)
(-0.00754354 -2.33181 -4.42617e-19 0.00755768 -8.68675e-19 -3.23539e-38)
(-0.00663298 -2.32387 1.95357e-19 0.00657535 1.45544e-19 1.65114e-39)
(-0.00551271 -2.31581 -7.82495e-20 0.00555244 -2.92236e-19 -2.58367e-40)
(-0.00480149 -2.31013 1.00748e-19 0.00459645 9.93925e-20 3.49708e-40)
(-0.00352086 -2.30528 5.05636e-21 0.00384214 -3.78241e-22 -1.42875e-44)
(-0.00203554 -3.38793 1.5163e-22 0.00157218 5.60891e-24 0)
(0.000691661 -3.38139 1.20834e-20 -0.000255292 2.83449e-19 1.06339e-40)
(0.00334634 -3.37846 -3.3429e-19 -0.00345897 3.61972e-19 -1.7746e-39)
(0.0066036 -3.37754 -3.68914e-19 -0.00637146 3.62286e-19 -2.21181e-39)
(0.00952428 -3.37807 1.01146e-19 -0.00934122 8.44195e-19 -7.24538e-38)
(0.0125342 -3.38071 9.28553e-19 -0.0123852 1.77754e-18 -7.65098e-38)
(0.0156463 -3.38144 -2.41243e-18 -0.0153851 -2.51414e-19 2.06939e-37)
(0.0184579 -3.3818 6.55941e-19 -0.0182527 -1.52357e-18 -6.99411e-39)
(0.0211951 -3.381 -7.11571e-19 -0.020955 5.94861e-19 -6.80247e-39)
(0.0236448 -3.37844 7.0574e-19 -0.0234131 -3.05937e-19 1.5817e-38)
(0.0258348 -3.37483 -6.79692e-19 -0.0255993 2.80539e-19 1.49491e-38)
(0.0276837 -3.37116 -2.51029e-20 -0.0274703 2.3323e-20 0)
(0.0292531 -3.36699 6.80697e-20 -0.0290481 -7.09383e-19 -2.07172e-39)
(0.0304949 -3.36244 -1.69298e-18 -0.0302963 -6.02639e-19 2.84446e-38)
(0.0314118 -3.35776 -4.4634e-20 -0.0312373 -2.24766e-19 0)