/*--------------------------------*- C++ -*----------------------------------*\
| =========                 |                                                 |
| \\      /  F ield         | OpenFOAM: The Open Source CFD Toolbox           |
|  \\    /   O peration     | Version:  2006                                  |
|   \\  /    A nd           | Website:  www.openfoam.com                      |
|    \\/     M anipulation  |                                                 |
\*---------------------------------------------------------------------------*/
FoamFile
{
    version     2.0;
    format      ascii;
    class       volTensorField;
    location    "20000";
    object      T10;
}
// * * * * * * * * * * * * * * * * * * * * * * * * * * * * * * * * * * * * * //

dimensions      [0 0 0 0 0 0 0];


internalField   nonuniform List<tensor> 
14751
(
(1.6058e-08 -3.9682e-12 2.31007e-32 -3.9682e-12 -1.6058e-08 -5.59248e-36 2.31007e-32 -5.59248e-36 3.32322e-56)
(-1.09022e-08 2.57158e-12 1.26227e-28 2.57158e-12 1.09022e-08 -1.39913e-31 1.26227e-28 -1.39913e-31 -1.46147e-48)
(2.07718e-08 -2.05597e-12 -9.06166e-30 -2.05597e-12 -2.07718e-08 1.3496e-30 -9.06166e-30 1.3496e-30 3.86556e-51)
(1.99145e-08 1.46668e-13 1.07163e-29 1.46668e-13 -1.99145e-08 -3.3105e-30 1.07163e-29 -3.3105e-30 5.21625e-51)
(3.18872e-08 3.59718e-12 1.69744e-29 3.59718e-12 -3.18872e-08 3.17293e-30 1.69744e-29 3.17293e-30 8.72056e-51)
(3.94776e-08 9.77646e-12 -4.97426e-29 9.77646e-12 -3.94776e-08 -4.43968e-31 -4.97426e-29 -4.43968e-31 6.26719e-50)
(4.18856e-08 1.45081e-11 -1.58001e-27 1.45081e-11 -4.18856e-08 -5.76491e-31 -1.58001e-27 -5.76491e-31 5.9601e-47)
(4.69691e-08 2.14082e-11 1.93161e-30 2.14082e-11 -4.69691e-08 -1.9672e-30 1.93161e-30 -1.9672e-30 -3.0283e-54)
(4.71952e-08 2.61973e-11 1.64241e-27 2.61973e-11 -4.71952e-08 1.0728e-30 1.64241e-27 1.0728e-30 5.71566e-47)
(4.74333e-08 3.05027e-11 2.58144e-29 3.05027e-11 -4.74333e-08 1.53713e-32 2.58144e-29 1.53713e-32 1.40488e-50)
(4.56895e-08 3.30424e-11 1.48388e-27 3.30424e-11 -4.56895e-08 1.05977e-30 1.48388e-27 1.05977e-30 4.8193e-47)
(4.3637e-08 3.46275e-11 6.32867e-32 3.46275e-11 -4.3637e-08 1.2981e-32 6.32867e-32 1.2981e-32 8.79529e-56)
(4.05254e-08 3.46309e-11 -1.20717e-27 3.46309e-11 -4.05254e-08 -1.06086e-30 -1.20717e-27 -1.06086e-30 3.5959e-47)
(3.67879e-08 3.32839e-11 -6.34083e-29 3.32839e-11 -3.67879e-08 1.92183e-31 -6.34083e-29 1.92183e-31 1.0929e-49)
(3.32096e-08 3.13944e-11 1.11586e-28 3.13944e-11 -3.32096e-08 2.88245e-30 1.11586e-28 2.88245e-30 3.74699e-49)
(2.914e-08 2.84002e-11 -3.17288e-30 2.84002e-11 -2.914e-08 -2.79158e-31 -3.17288e-30 -2.79158e-31 3.4286e-52)
(2.5686e-08 2.56087e-11 -7.97202e-29 2.56087e-11 -2.5686e-08 -1.12322e-30 -7.97202e-29 -1.12322e-30 2.4738e-49)
(2.19446e-08 2.20981e-11 3.39328e-29 2.20981e-11 -2.19446e-08 6.52523e-32 3.39328e-29 6.52523e-32 5.247e-50)
(1.88414e-08 1.90021e-11 1.90856e-28 1.90021e-11 -1.88414e-08 2.07275e-31 1.90856e-28 2.07275e-31 1.93329e-48)
(1.57752e-08 1.57942e-11 2.25245e-29 1.57942e-11 -1.57752e-08 1.54129e-32 2.25245e-29 1.54129e-32 3.21617e-50)
(1.33133e-08 1.31668e-11 -3.3792e-32 1.31668e-11 -1.33133e-08 6.90436e-32 -3.3792e-32 6.90436e-32 -2.7264e-55)
(1.09469e-08 1.06523e-11 -1.12929e-28 1.06523e-11 -1.09469e-08 -1.53751e-31 -1.12929e-28 -1.53751e-31 1.16498e-48)
(9.16724e-09 8.76805e-12 1.02902e-28 8.76805e-12 -9.16724e-09 1.39765e-31 1.02902e-28 1.39765e-31 1.15506e-48)
(7.43718e-09 6.93114e-12 -9.05783e-29 6.93114e-12 -7.43718e-09 -1.21975e-31 -9.05783e-29 -1.21975e-31 1.10316e-48)
(6.16367e-09 5.58592e-12 7.51815e-30 5.58592e-12 -6.16367e-09 -2.31079e-32 7.51815e-30 -2.31079e-32 9.17014e-51)
(5.00193e-09 4.38877e-12 -2.02897e-32 4.38877e-12 -5.00193e-09 2.41754e-32 -2.02897e-32 2.41754e-32 -3.47143e-56)
(4.1129e-09 3.48286e-12 7.0023e-37 3.48286e-12 -4.1129e-09 -8.07119e-34 7.0023e-37 -8.07119e-34 -1.58389e-58)
(3.34535e-09 2.72365e-12 3.0742e-29 2.72365e-12 -3.34535e-09 2.41998e-32 3.0742e-29 2.41998e-32 2.82502e-49)
(2.7334e-09 2.13273e-12 1.56532e-30 2.13273e-12 -2.7334e-09 -1.32658e-32 1.56532e-30 -1.32658e-32 8.96328e-52)
(2.22867e-09 1.66207e-12 -1.29796e-30 1.66207e-12 -2.22867e-09 -1.43581e-33 -1.29796e-30 -1.43581e-33 7.55926e-52)
(1.82156e-09 1.29417e-12 1.06427e-30 1.29417e-12 -1.82156e-09 7.09266e-33 1.06427e-30 7.09266e-33 6.21794e-52)
(1.48986e-09 1.00553e-12 1.46434e-33 1.00553e-12 -1.48986e-09 3.61146e-33 1.46434e-33 3.61146e-33 -7.31025e-57)
(1.21972e-09 7.79589e-13 5.18345e-30 7.79589e-13 -1.21972e-09 3.31672e-33 5.18345e-30 3.31672e-33 2.20282e-50)
(1.00211e-09 6.04743e-13 4.68202e-30 6.04743e-13 -1.00211e-09 5.48555e-33 4.68202e-30 5.48555e-33 2.18753e-50)
(8.37602e-10 4.75758e-13 2.67908e-31 4.75758e-13 -8.37602e-10 2.49518e-34 2.67908e-31 2.49518e-34 8.56909e-53)
(6.90655e-10 3.67984e-13 3.44926e-30 3.67984e-13 -6.90655e-10 1.37971e-33 3.44926e-30 1.37971e-33 1.72262e-50)
(5.84272e-10 2.90569e-13 -3.24513e-30 2.90569e-13 -5.84272e-10 -1.3733e-33 -3.24513e-30 -1.3733e-33 1.80239e-50)
(4.89232e-10 2.26384e-13 -5.66169e-33 2.26384e-13 -4.89232e-10 -2.11133e-35 -5.66169e-33 -2.11133e-35 6.55197e-56)
(4.1644e-10 1.78104e-13 1.54628e-31 1.78104e-13 -4.1644e-10 6.59111e-35 1.54628e-31 6.59111e-35 5.74151e-53)
(3.7417e-10 1.47695e-13 -7.53751e-32 1.47695e-13 -3.7417e-10 -2.08793e-35 -7.53751e-32 -2.08793e-35 1.5184e-53)
(3.27658e-10 1.18082e-13 -2.45439e-33 1.18082e-13 -3.27658e-10 2.02053e-33 -2.45439e-33 2.02053e-33 5.91434e-57)
(2.85714e-10 9.29367e-14 4.49036e-32 9.29367e-14 -2.85714e-10 2.39054e-32 4.49036e-32 2.39054e-32 5.05949e-54)
(2.44885e-10 7.13968e-14 3.20371e-37 7.13968e-14 -2.44885e-10 -1.0842e-33 3.20371e-37 -1.0842e-33 -4.8002e-57)
(2.19059e-10 5.62211e-14 -3.33078e-33 5.62211e-14 -2.19059e-10 4.58871e-33 -3.33078e-33 4.58871e-33 -4.5513e-56)
(1.91595e-10 4.27297e-14 -2.45783e-32 4.27297e-14 -1.91595e-10 -3.28654e-34 -2.45783e-32 -3.28654e-34 3.15243e-54)
(1.83426e-10 3.46112e-14 4.09937e-31 3.46112e-14 -1.83426e-10 4.23208e-34 4.09937e-31 4.23208e-34 9.16167e-52)
(1.64748e-10 2.53643e-14 1.67359e-31 2.53643e-14 -1.64748e-10 3.48563e-33 1.67359e-31 3.48563e-33 1.69938e-52)
(1.62225e-10 1.939e-14 -1.75994e-31 1.939e-14 -1.62225e-10 -3.33767e-34 -1.75994e-31 -3.33767e-34 1.90931e-52)
(1.50207e-10 1.26752e-14 3.5349e-37 1.26752e-14 -1.50207e-10 3.76738e-38 3.5349e-37 3.76738e-38 8.22453e-64)
(1.50788e-10 7.42891e-15 9.23109e-36 7.42892e-15 -1.50788e-10 -3.45575e-34 9.23109e-36 -3.45575e-34 -7.91425e-58)
(1.4604e-10 2.04952e-15 -5.11783e-32 2.04952e-15 -1.4604e-10 -3.06372e-33 -5.11783e-32 -3.06372e-33 1.78707e-53)
(1.46989e-10 -3.16358e-15 6.17283e-33 -3.16358e-15 -1.46989e-10 3.35073e-34 6.17283e-33 3.35073e-34 2.58465e-55)
(1.4733e-10 -8.33752e-15 2.67284e-32 -8.33752e-15 -1.4733e-10 -1.05266e-35 2.67284e-32 -1.05266e-35 4.84904e-54)
(1.57101e-10 -1.44189e-14 1.23541e-33 -1.44189e-14 -1.57101e-10 8.98195e-36 1.23541e-33 8.98195e-36 9.71458e-57)
(1.60364e-10 -2.03462e-14 -6.17267e-32 -2.03462e-14 -1.60364e-10 -1.45311e-35 -6.17267e-32 -1.45311e-35 2.37595e-53)
(1.77964e-10 -2.86531e-14 3.48632e-32 -2.86531e-14 -1.77964e-10 3.88715e-35 3.48632e-32 3.88715e-35 6.8297e-54)
(1.85868e-10 -3.62654e-14 2.26157e-34 -3.62654e-14 -1.85868e-10 5.65732e-34 2.26157e-34 5.65732e-34 -1.44703e-57)
(2.13557e-10 -4.87464e-14 -6.00102e-33 -4.87464e-14 -2.13557e-10 5.08484e-33 -6.00102e-33 5.08484e-33 4.76244e-56)
(2.24204e-10 -5.8399e-14 -6.20299e-33 -5.8399e-14 -2.24204e-10 6.89485e-33 -6.20299e-33 6.89485e-33 -4.03186e-56)
(2.45291e-10 -7.17781e-14 -2.50177e-31 -7.17781e-14 -2.45291e-10 1.99187e-32 -2.50177e-31 1.99187e-32 2.53554e-52)
(2.64731e-10 -8.52649e-14 -9.41429e-33 -8.52649e-14 -2.64731e-10 -3.44951e-33 -9.41429e-33 -3.44951e-33 2.89761e-55)
(2.88232e-10 -1.0143e-13 -7.86226e-33 -1.0143e-13 -2.88232e-10 -7.68137e-33 -7.86226e-33 -7.68137e-33 9.60753e-57)
(3.37745e-10 -1.27805e-13 5.57922e-30 -1.27805e-13 -3.37745e-10 -5.87677e-32 5.57922e-30 -5.87677e-32 9.2154e-50)
(4.22643e-10 -1.70057e-13 6.61318e-30 -1.70057e-13 -4.22643e-10 8.84914e-33 6.61318e-30 8.84914e-33 1.03477e-49)
(4.76034e-10 -2.03567e-13 -7.58316e-30 -2.03567e-13 -4.76034e-10 2.97799e-33 -7.58316e-30 2.97799e-33 1.20799e-49)
(5.41803e-10 -2.43832e-13 -1.86591e-36 -2.43832e-13 -5.41803e-10 -4.01434e-33 -1.86591e-36 -4.01434e-33 -2.97431e-56)
(6.25476e-10 -2.9525e-13 1.33877e-30 -2.9525e-13 -6.25476e-10 -2.71044e-32 1.33877e-30 -2.71044e-32 2.86439e-51)
(7.05009e-10 -3.4754e-13 -1.44405e-30 -3.4754e-13 -7.05009e-10 8.98124e-33 -1.44405e-30 8.98124e-33 2.95769e-51)
(8.01503e-10 -4.11271e-13 -2.68227e-32 -4.11271e-13 -8.01503e-10 1.96609e-32 -2.68227e-32 1.96609e-32 4.16024e-55)
(8.9018e-10 -4.72079e-13 -1.5171e-29 -4.72079e-13 -8.9018e-10 2.00535e-32 -1.5171e-29 2.00535e-32 2.58552e-49)
(1.01245e-09 -5.50297e-13 3.45372e-32 -5.50297e-13 -1.01245e-09 -2.49632e-32 3.45372e-32 -2.49632e-32 5.63577e-55)
(1.1265e-09 -6.24963e-13 2.45811e-30 -6.24963e-13 -1.1265e-09 2.82519e-33 2.45811e-30 2.82519e-33 5.36379e-51)
(1.24516e-09 -7.0312e-13 4.0588e-29 -7.0312e-13 -1.24516e-09 -2.23252e-32 4.0588e-29 -2.23252e-32 1.32304e-48)
(1.38361e-09 -7.92395e-13 4.83063e-29 -7.92395e-13 -1.38361e-09 -2.11258e-32 4.83063e-29 -2.11258e-32 1.68653e-48)
(1.49952e-09 -8.74098e-13 6.55064e-30 -8.74098e-13 -1.49952e-09 2.4197e-32 6.55064e-30 2.4197e-32 2.86159e-50)
(1.55844e-09 -9.21369e-13 -2.00376e-32 -9.21369e-13 -1.55844e-09 -7.24411e-33 -2.00376e-32 -7.24411e-33 2.23852e-55)
(1.79798e-09 -1.07492e-12 -6.31122e-29 -1.07492e-12 -1.79798e-09 3.871e-32 -6.31122e-29 3.871e-32 2.21535e-48)
(1.68201e-09 -1.02281e-12 -5.90096e-29 -1.02281e-12 -1.68201e-09 3.6091e-32 -5.90096e-29 3.6091e-32 2.07023e-48)
(1.96241e-09 -1.20652e-12 8.64939e-30 -1.20652e-12 -1.96241e-09 1.10005e-32 8.64939e-30 1.10005e-32 3.81224e-50)
(1.50493e-09 -9.49353e-13 -6.60935e-30 -9.49353e-13 -1.50493e-09 8.09863e-32 -6.60935e-30 8.09863e-32 2.9023e-50)
(1.69843e-09 -1.08365e-12 5.89139e-29 -1.08365e-12 -1.69843e-09 3.21677e-32 5.89139e-29 3.21677e-32 2.04356e-48)
(1.14351e-09 -7.47617e-13 -9.4314e-32 -7.47617e-13 -1.14351e-09 3.83339e-32 -9.4314e-32 3.83339e-32 6.49786e-54)
(8.98918e-10 -5.98553e-13 3.88525e-30 -5.98553e-13 -8.98918e-10 -7.79136e-33 3.88525e-30 -7.79136e-33 1.67925e-50)
(2.60799e-10 -1.77625e-13 -2.21803e-30 -1.77625e-13 -2.60799e-10 3.4393e-33 -2.21803e-30 3.4393e-33 1.88638e-50)
(-6.0959e-10 4.25031e-13 -2.51876e-30 4.25031e-13 6.0959e-10 -2.87974e-32 -2.51876e-30 -2.87974e-32 -1.04057e-50)
(-1.49322e-09 1.0616e-12 -9.93656e-29 1.0616e-12 1.49322e-09 3.08434e-32 -9.93656e-29 3.08434e-32 -6.61224e-48)
(-2.76781e-09 2.00689e-12 5.52786e-30 2.00689e-12 2.76781e-09 1.34018e-31 5.52786e-30 1.34018e-31 -1.10333e-50)
(-4.32085e-09 3.18526e-12 -8.73151e-30 3.18526e-12 4.32085e-09 -2.57648e-32 -8.73151e-30 -2.57648e-32 -1.76443e-50)
(-5.75299e-09 4.28352e-12 0 4.28352e-12 5.75299e-09 0 0 0 0)
(-8.35213e-09 6.29931e-12 8.16419e-30 6.29931e-12 8.35213e-09 -1.23005e-31 8.16419e-30 -1.23005e-31 -7.97885e-51)
(-1.02362e-08 7.65199e-12 -8.51829e-30 7.65199e-12 1.02362e-08 -8.52583e-31 -8.51829e-30 -8.52583e-31 -7.0166e-51)
(-1.22849e-08 9.07901e-12 -7.41017e-28 9.07901e-12 1.22849e-08 6.98655e-31 -7.41017e-28 6.98655e-31 -4.46975e-47)
(-1.66067e-08 1.2133e-11 -3.68283e-30 1.2133e-11 1.66067e-08 -8.48041e-32 -3.68283e-30 -8.48041e-32 -8.16272e-52)
(-1.58676e-08 1.10058e-11 2.13371e-29 1.10058e-11 1.58676e-08 1.32781e-32 2.13371e-29 1.32781e-32 -2.86919e-50)
(-2.15549e-08 1.46537e-11 -1.87824e-29 1.46537e-11 2.15549e-08 1.8706e-32 -1.87824e-29 1.8706e-32 -1.63665e-50)
(-1.97037e-08 1.21711e-11 -5.26178e-28 1.21711e-11 1.97037e-08 3.68663e-31 -5.26178e-28 3.68663e-31 -1.40514e-47)
(-2.33712e-08 1.25743e-11 -5.55905e-30 1.25743e-11 2.33712e-08 4.9994e-31 -5.55905e-30 4.9994e-31 -1.3117e-51)
(-5.02239e-09 2.40248e-12 -1.01866e-30 2.40248e-12 5.02239e-09 -1.53628e-32 -1.01866e-30 -1.53628e-32 -2.06559e-52)
(-2.92456e-08 1.45314e-11 6.54902e-37 1.45314e-11 2.92456e-08 1.31836e-33 6.54902e-37 1.31836e-33 5.943e-59)
(4.80143e-06 -2.93608e-09 5.44931e-30 -2.93608e-09 -4.80143e-06 -2.44258e-27 5.44931e-30 -2.44258e-27 -1.24258e-48)
(-2.52358e-06 1.24277e-09 -2.67513e-26 1.24277e-09 2.52358e-06 1.37125e-26 -2.67513e-26 1.37125e-26 -2.09211e-46)
(2.45124e-06 -5.26349e-10 -2.33195e-27 -5.26349e-10 -2.45124e-06 8.31299e-28 -2.33195e-27 8.31299e-28 1.93689e-48)
(-1.51273e-07 -9.03825e-12 -1.80857e-28 -9.03825e-12 1.51273e-07 -5.17771e-29 -1.80857e-28 -5.17771e-29 -1.98513e-49)
(5.46636e-07 1.70638e-10 4.3624e-26 1.70638e-10 -5.46636e-07 4.47944e-29 4.3624e-26 4.47944e-29 3.48139e-45)
(6.51245e-07 4.11607e-10 -5.01657e-26 4.11607e-10 -6.51245e-07 -1.4589e-27 -5.01657e-26 -1.4589e-27 3.86116e-45)
(-2.24413e-07 -1.99615e-10 -7.78072e-27 -1.99615e-10 2.24413e-07 4.75378e-27 -7.78072e-27 4.75378e-27 -1.68775e-46)
(-8.66919e-08 -1.0054e-10 1.39696e-29 -1.0054e-10 8.66919e-08 -2.85964e-28 1.39696e-29 -2.85964e-28 9.41142e-49)
(-6.50499e-07 -9.20848e-10 2.0376e-26 -9.20848e-10 6.50499e-07 -1.37727e-26 2.0376e-26 -1.37727e-26 -3.45428e-46)
(-8.13943e-07 -1.33755e-09 5.21276e-26 -1.33755e-09 8.13943e-07 -2.69239e-29 5.21276e-26 -2.69239e-29 -3.33841e-45)
(-1.10671e-06 -2.05192e-09 -3.81705e-26 -2.05192e-09 1.10671e-06 -2.36621e-26 -3.81705e-26 -2.36621e-26 -8.13616e-46)
(-1.20521e-06 -2.45694e-09 2.28826e-27 -2.45694e-09 1.20521e-06 3.41414e-27 2.28826e-27 3.41414e-27 5.30061e-48)
(-1.32062e-06 -2.90878e-09 -3.4176e-26 -2.90878e-09 1.32062e-06 2.80829e-26 -3.4176e-26 2.80829e-26 -2.84046e-46)
(-1.39978e-06 -3.27665e-09 2.33864e-28 -3.27665e-09 1.39978e-06 -7.37188e-28 2.33864e-28 -7.37188e-28 3.49739e-49)
(-1.35627e-06 -3.32774e-09 -6.60799e-26 -3.32774e-09 1.35627e-06 -2.84849e-27 -6.60799e-26 -2.84849e-27 -3.2142e-45)
(-1.40202e-06 -3.56264e-09 -4.46393e-27 -3.56264e-09 1.40202e-06 4.14192e-28 -4.46393e-27 4.14192e-28 -1.40837e-47)
(-1.27671e-06 -3.32882e-09 2.97949e-28 -3.32882e-09 1.27671e-06 2.3824e-27 2.97949e-28 2.3824e-27 4.37319e-48)
(-1.24947e-06 -3.30477e-09 -1.92707e-28 -3.30477e-09 1.24947e-06 -1.98945e-27 -1.92707e-28 -1.98945e-27 3.13629e-48)
(-1.10695e-06 -2.94304e-09 7.87248e-27 -2.94304e-09 1.10695e-06 -1.04495e-26 7.87248e-27 -1.04495e-26 4.30484e-47)
(-1.03165e-06 -2.73476e-09 2.58362e-27 -2.73476e-09 1.03165e-06 -5.25142e-28 2.58362e-27 -5.25142e-28 -6.19598e-48)
(-8.83951e-07 -2.32195e-09 2.40759e-30 -2.32195e-09 8.83951e-07 4.72721e-28 2.40759e-30 4.72721e-28 2.52788e-49)
(-8.16854e-07 -2.11985e-09 -4.95988e-27 -2.11985e-09 8.16854e-07 8.02512e-27 -4.95988e-27 8.02512e-27 4.89788e-47)
(-6.90718e-07 -1.76725e-09 3.8571e-27 -1.76725e-09 6.90718e-07 -7.72956e-27 3.8571e-27 -7.72956e-27 6.51803e-47)
(-6.40325e-07 -1.60344e-09 1.80935e-26 -1.60344e-09 6.40325e-07 8.15917e-27 1.80935e-26 8.15917e-27 -4.0845e-46)
(-5.44507e-07 -1.32949e-09 9.41894e-27 -1.32949e-09 5.44507e-07 -8.13886e-28 9.41894e-27 -8.13886e-28 -1.61644e-46)
(-4.92738e-07 -1.16816e-09 -1.03294e-27 -1.16816e-09 4.92738e-07 2.79921e-29 -1.03294e-27 2.79921e-29 -2.16348e-48)
(-4.28649e-07 -9.8277e-10 8.12802e-27 -9.8277e-10 4.28649e-07 -1.58723e-28 8.12802e-27 -1.58723e-28 -1.54049e-46)
(-3.83283e-07 -8.46401e-10 2.75992e-27 -8.46401e-10 3.83283e-07 -3.90878e-27 2.75992e-27 -3.90878e-27 2.01132e-47)
(-3.37568e-07 -7.15251e-10 -3.75306e-28 -7.15251e-10 3.37568e-07 -8.8481e-30 -3.75306e-28 -8.8481e-30 -4.17071e-49)
(-2.99692e-07 -6.07273e-10 3.34941e-28 -6.07273e-10 2.99692e-07 1.42778e-28 3.34941e-28 1.42778e-28 -3.06961e-49)
(-2.65085e-07 -5.11781e-10 4.42722e-27 -5.11781e-10 2.65085e-07 -1.21527e-28 4.42722e-27 -1.21527e-28 -7.38758e-47)
(-2.34864e-07 -4.30499e-10 -4.24329e-27 -4.30499e-10 2.34864e-07 -4.36366e-29 -4.24329e-27 -4.36366e-29 -7.66582e-47)
(-2.07816e-07 -3.60318e-10 -2.36465e-27 -3.60318e-10 2.07816e-07 -9.97017e-28 -2.36465e-27 -9.97017e-28 -2.21624e-47)
(-1.86159e-07 -3.04247e-10 -1.14434e-27 -3.04247e-10 1.86159e-07 -8.61454e-28 -1.14434e-27 -8.61454e-28 -3.06525e-48)
(-1.61316e-07 -2.47484e-10 -6.5784e-30 -2.47484e-10 1.61316e-07 -3.91288e-29 -6.5784e-30 -3.91288e-29 9.21792e-51)
(-1.45534e-07 -2.08709e-10 5.04844e-28 -2.08709e-10 1.45534e-07 -6.57446e-28 5.04844e-28 -6.57446e-28 1.22528e-48)
(-1.2582e-07 -1.67729e-10 -5.26676e-28 -1.67729e-10 1.2582e-07 6.57139e-28 -5.26676e-28 6.57139e-28 1.23483e-48)
(-1.13186e-07 -1.39647e-10 1.22481e-27 -1.39647e-10 1.13186e-07 -2.89715e-29 1.22481e-27 -2.89715e-29 -1.32457e-47)
(-9.61907e-08 -1.08999e-10 -4.73627e-30 -1.08999e-10 9.61907e-08 -2.13152e-29 -4.73627e-30 -2.13152e-29 4.48773e-51)
(-8.46337e-08 -8.76696e-11 2.26218e-30 -8.76696e-11 8.46337e-08 1.10708e-29 2.26218e-30 1.10708e-29 1.38708e-51)
(-7.49585e-08 -7.01609e-11 2.78617e-29 -7.01609e-11 7.49585e-08 -6.95846e-31 2.78617e-29 -6.95846e-31 -1.03491e-50)
(-5.89288e-08 -4.92453e-11 -3.66265e-29 -4.92453e-11 5.89288e-08 -2.55929e-30 -3.66265e-29 -2.55929e-30 -2.26563e-50)
(-5.36977e-08 -3.96125e-11 2.09226e-29 -3.96125e-11 5.36977e-08 1.46081e-31 2.09226e-29 1.46081e-31 -8.15188e-51)
(-3.77835e-08 -2.40848e-11 -2.50113e-28 -2.40848e-11 3.77835e-08 7.31411e-31 -2.50113e-28 7.31411e-31 -1.65564e-48)
(-3.32045e-08 -1.79216e-11 -2.31269e-28 -1.79216e-11 3.32045e-08 -1.59624e-30 -2.31269e-28 -1.59624e-30 -1.61072e-48)
(-2.19832e-08 -9.67296e-12 3.36075e-29 -9.67296e-12 2.19832e-08 -2.94906e-29 3.36075e-29 -2.94906e-29 -1.1777e-50)
(-1.51924e-08 -5.16299e-12 -1.29788e-30 -5.16299e-12 1.51924e-08 -6.4751e-30 -1.29788e-30 -6.4751e-30 2.64848e-51)
(-4.47969e-09 -1.07447e-12 -3.25742e-30 -1.07447e-12 4.47969e-09 2.8307e-30 -3.25742e-30 2.8307e-30 -5.78946e-52)
(1.92096e-09 2.66836e-13 3.09557e-31 2.66837e-13 -1.92096e-09 9.16169e-32 3.09557e-31 9.16169e-32 4.5519e-53)
(1.26392e-08 4.75523e-13 -4.22097e-31 4.75523e-13 -1.26392e-08 -1.60021e-31 -4.22097e-31 -1.60021e-31 1.20708e-53)
(2.02181e-08 -1.28614e-12 2.89588e-29 -1.28614e-12 -2.02181e-08 -3.00976e-30 2.89588e-29 -3.00976e-30 4.10309e-50)
(3.05558e-08 -5.04963e-12 1.71088e-31 -5.04963e-12 -3.05558e-08 1.05726e-30 1.71088e-31 1.05726e-30 -3.56262e-53)
(3.74198e-08 -9.94891e-12 1.26375e-29 -9.94891e-12 -3.74198e-08 2.03981e-30 1.26375e-29 2.03981e-30 4.15638e-51)
(4.84663e-08 -1.77772e-11 -2.46183e-28 -1.77772e-11 -4.84663e-08 -1.10312e-30 -2.46183e-28 -1.10312e-30 1.25045e-48)
(5.53012e-08 -2.58026e-11 -2.0637e-29 -2.58026e-11 -5.53012e-08 -5.73084e-30 -2.0637e-29 -5.73084e-30 7.10529e-51)
(6.69238e-08 -3.77794e-11 -7.74883e-28 -3.77794e-11 -6.69238e-08 5.27491e-30 -7.74883e-28 5.27491e-30 8.97169e-48)
(7.48657e-08 -4.95214e-11 -2.025e-30 -4.95214e-11 -7.48657e-08 -9.76731e-31 -2.025e-30 -9.76731e-31 4.19951e-53)
(8.85556e-08 -6.69595e-11 5.61119e-29 -6.69595e-11 -8.85556e-08 -2.01566e-30 5.61119e-29 -2.01566e-30 3.55105e-50)
(9.43389e-08 -7.99699e-11 1.35559e-28 -7.99699e-11 -9.43389e-08 -6.93223e-30 1.35559e-28 -6.93223e-30 1.94298e-49)
(1.13136e-07 -1.06085e-10 -2.22426e-28 -1.06085e-10 -1.13136e-07 -3.28071e-29 -2.22426e-28 -3.28071e-29 4.27655e-49)
(1.18408e-07 -1.20962e-10 8.28708e-32 -1.20962e-10 -1.18408e-07 6.56376e-30 8.28708e-32 6.56376e-30 -3.63804e-52)
(1.36086e-07 -1.50298e-10 -3.73022e-27 -1.50298e-10 -1.36086e-07 1.06565e-28 -3.73022e-27 1.06565e-28 1.02171e-46)
(1.46858e-07 -1.73502e-10 -1.28156e-27 -1.73502e-10 -1.46858e-07 8.80772e-28 -1.28156e-27 8.80772e-28 5.91941e-48)
(1.59505e-07 -1.99874e-10 2.46253e-27 -1.99874e-10 -1.59505e-07 5.55411e-28 2.46253e-27 5.55411e-28 3.60624e-47)
(1.7567e-07 -2.32658e-10 2.66116e-27 -2.32658e-10 -1.7567e-07 -9.90066e-28 2.66116e-27 -9.90066e-28 3.47726e-47)
(1.89563e-07 -2.63333e-10 3.96495e-27 -2.63333e-10 -1.89563e-07 1.43974e-28 3.96495e-27 1.43974e-28 8.2814e-47)
(2.10319e-07 -3.05445e-10 1.27485e-26 -3.05445e-10 -2.10319e-07 6.64061e-29 1.27485e-26 6.64061e-29 7.72717e-46)
(2.21195e-07 -3.34587e-10 7.46987e-28 -3.34587e-10 -2.21195e-07 -1.24014e-28 7.46987e-28 -1.24014e-28 2.45435e-48)
(2.45692e-07 -3.85829e-10 -9.08512e-28 -3.85829e-10 -2.45692e-07 -1.66251e-28 -9.08512e-28 -1.66251e-28 3.24503e-48)
(2.60839e-07 -4.22633e-10 1.86372e-26 -4.22633e-10 -2.60839e-07 -1.32713e-27 1.86372e-26 -1.32713e-27 1.3252e-45)
(2.84944e-07 -4.73122e-10 -1.69249e-26 -4.73122e-10 -2.84944e-07 2.68491e-28 -1.69249e-26 2.68491e-28 1.00509e-45)
(3.02721e-07 -5.12488e-10 -1.80919e-26 -5.12488e-10 -3.02721e-07 5.99372e-28 -1.80919e-26 5.99372e-28 1.08018e-45)
(3.22286e-07 -5.54496e-10 -6.04557e-27 -5.54496e-10 -3.22286e-07 3.54737e-27 -6.04557e-27 3.54737e-27 7.45885e-47)
(3.48539e-07 -6.07868e-10 -1.18332e-26 -6.07868e-10 -3.48539e-07 3.08586e-27 -1.18332e-26 3.08586e-27 3.74791e-46)
(3.75427e-07 -6.64349e-10 -2.74912e-27 -6.64349e-10 -3.75427e-07 -2.16971e-28 -2.74912e-27 -2.16971e-28 1.99997e-47)
(3.7378e-07 -6.69139e-10 -2.84971e-27 -6.69139e-10 -3.7378e-07 -9.82696e-28 -2.84971e-27 -9.82696e-28 1.91159e-47)
(4.48031e-07 -8.10445e-10 1.2079e-26 -8.10445e-10 -4.48031e-07 -5.22172e-27 1.2079e-26 -5.22172e-27 2.65301e-46)
(4.09014e-07 -7.48413e-10 -3.94732e-26 -7.48413e-10 -4.09014e-07 -3.36658e-27 -3.94732e-26 -3.36658e-27 3.78057e-45)
(5.24037e-07 -9.67852e-10 -3.83129e-27 -9.67852e-10 -5.24037e-07 1.17983e-27 -3.83129e-27 1.17983e-27 2.53864e-47)
(4.73947e-07 -8.8827e-10 3.33217e-27 -8.8827e-10 -4.73947e-07 1.64377e-28 3.33217e-27 1.64377e-28 2.3366e-47)
(6.14936e-07 -1.1621e-09 -1.69841e-26 -1.1621e-09 -6.14936e-07 6.37161e-27 -1.69841e-26 6.37161e-27 4.03733e-46)
(5.87687e-07 -1.12531e-09 -7.71474e-26 -1.12531e-09 -5.87687e-07 -6.4511e-28 -7.71474e-26 -6.4511e-28 1.01263e-44)
(6.99925e-07 -1.35395e-09 -8.03751e-26 -1.35395e-09 -6.99925e-07 5.54036e-28 -8.03751e-26 5.54036e-28 9.22956e-45)
(7.65707e-07 -1.49836e-09 -6.47109e-27 -1.49836e-09 -7.65707e-07 -1.45256e-27 -6.47109e-27 -1.45256e-27 5.18842e-47)
(8.2076e-07 -1.62406e-09 6.36611e-27 -1.62406e-09 -8.2076e-07 3.41889e-27 6.36611e-27 3.41889e-27 3.50313e-47)
(9.25619e-07 -1.84619e-09 -5.42618e-26 -1.84619e-09 -9.25619e-07 1.89286e-26 -5.42618e-26 1.89286e-26 2.79827e-45)
(9.80028e-07 -1.96712e-09 -4.60715e-30 -1.96712e-09 -9.80028e-07 -3.12818e-27 -4.60715e-30 -3.12818e-27 -9.98495e-48)
(1.03329e-06 -2.07961e-09 7.79943e-27 -2.07961e-09 -1.03329e-06 5.61916e-28 7.79943e-27 5.61916e-28 5.85482e-47)
(1.15674e-06 -2.3213e-09 -4.22111e-27 -2.3213e-09 -1.15674e-06 -1.41733e-28 -4.22111e-27 -1.41733e-28 1.5384e-47)
(1.07844e-06 -2.15229e-09 -2.01647e-27 -2.15229e-09 -1.07844e-06 -2.39225e-28 -2.01647e-27 -2.39225e-28 3.71555e-48)
(1.1802e-06 -2.30488e-09 1.35808e-25 -2.30488e-09 -1.1802e-06 3.12023e-27 1.35808e-25 3.12023e-27 1.56179e-44)
(1.23108e-06 -2.33926e-09 -6.4592e-26 -2.33926e-09 -1.23108e-06 2.61074e-26 -6.4592e-26 2.61074e-26 2.84053e-45)
(8.06295e-07 -1.48114e-09 -8.81296e-26 -1.48114e-09 -8.06295e-07 -1.93588e-27 -8.81296e-26 -1.93588e-27 9.62729e-45)
(1.43765e-06 -2.4873e-09 1.54517e-25 -2.4873e-09 -1.43765e-06 -7.34749e-28 1.54517e-25 -7.34749e-28 1.66073e-44)
(5.15799e-07 -8.46547e-10 -8.16656e-28 -8.46547e-10 -5.15799e-07 7.6222e-28 -8.16656e-28 7.6222e-28 1.70593e-49)
(1.15143e-06 -1.69323e-09 -2.52888e-26 -1.69323e-09 -1.15143e-06 1.21673e-26 -2.52888e-26 1.21673e-26 4.27632e-46)
(-7.09639e-08 9.00276e-11 -3.5104e-27 9.00276e-11 7.09639e-08 7.911e-29 -3.5104e-27 7.911e-29 -1.73572e-46)
(3.25768e-06 -3.74903e-09 2.51546e-29 -3.74903e-09 -3.25768e-06 1.62174e-28 2.51546e-29 1.62174e-28 -7.88203e-51)
(-3.18805e-06 3.44855e-09 -1.1365e-30 3.44855e-09 3.18805e-06 2.75925e-29 -1.1365e-30 2.75925e-29 2.38386e-52)
(0.000562425 -4.63993e-07 1.41278e-28 -4.63993e-07 -0.000562425 2.95411e-25 1.41278e-28 2.95411e-25 -1.55163e-46)
(-0.000465052 2.63919e-07 -6.1692e-24 2.63919e-07 0.000465052 -2.59025e-24 -6.1692e-24 -2.59025e-24 -6.73721e-44)
(0.000109024 -1.3385e-08 8.98623e-24 -1.3385e-08 -0.000109024 -1.05273e-25 8.98623e-24 -1.05273e-25 7.40583e-43)
(-0.000309396 -1.04149e-07 -2.48607e-23 -1.04149e-07 0.000309396 -1.32899e-24 -2.48607e-23 -1.32899e-24 -1.99198e-42)
(-0.000291659 -2.23014e-07 -2.36322e-23 -2.23014e-07 0.000291659 -1.83007e-23 -2.36322e-23 -1.83007e-23 -7.68805e-43)
(-0.00028468 -3.6057e-07 -2.06684e-23 -3.6057e-07 0.00028468 1.94723e-23 -2.06684e-23 1.94723e-23 -1.65076e-43)
(-0.000418654 -7.1695e-07 -7.79094e-23 -7.1695e-07 0.000418654 -1.10436e-23 -7.79094e-23 -1.10436e-23 -1.42142e-41)
(-0.000375262 -8.10779e-07 5.13744e-23 -8.10779e-07 0.000375262 1.46798e-24 5.13744e-23 1.46798e-24 -7.02839e-42)
(-0.000413872 -1.07157e-06 -3.71001e-23 -1.07157e-06 0.000413872 1.03559e-23 -3.71001e-23 1.03559e-23 -3.06175e-42)
(-0.000395198 -1.17548e-06 2.73192e-23 -1.17548e-06 0.000395198 2.44105e-23 2.73192e-23 2.44105e-23 -3.90773e-43)
(-0.000395303 -1.31567e-06 -1.09986e-23 -1.31567e-06 0.000395303 -1.87962e-23 -1.09986e-23 -1.87962e-23 5.84236e-43)
(-0.00037246 -1.35433e-06 4.97912e-26 -1.35433e-06 0.00037246 7.2169e-25 4.97912e-26 7.2169e-25 1.391e-45)
(-0.000353405 -1.3813e-06 -1.22251e-23 -1.3813e-06 0.000353405 -7.77787e-24 -1.22251e-23 -7.77787e-24 -2.53814e-43)
(-0.000329542 -1.36314e-06 -1.63763e-24 -1.36314e-06 0.000329542 -3.3655e-25 -1.63763e-24 -3.3655e-25 -7.80805e-45)
(-0.000291165 -1.25794e-06 1.50728e-23 -1.25794e-06 0.000291165 -1.77722e-23 1.50728e-23 -1.77722e-23 3.12449e-43)
(-0.000273981 -1.22258e-06 -1.12771e-25 -1.22258e-06 0.000273981 -2.36818e-25 -1.12771e-25 -2.36818e-25 1.57407e-46)
(-0.000230521 -1.05194e-06 -7.46875e-25 -1.05194e-06 0.000230521 3.53831e-26 -7.46875e-25 3.53831e-26 -2.4133e-45)
(-0.000214221 -9.89366e-07 1.8371e-23 -9.89366e-07 0.000214221 1.65745e-25 1.8371e-23 1.65745e-25 -1.57541e-42)
(-0.000179058 -8.29075e-07 -1.14504e-23 -8.29075e-07 0.000179058 1.2577e-24 -1.14504e-23 1.2577e-24 -7.22634e-43)
(-0.000161534 -7.43653e-07 -1.28748e-23 -7.43653e-07 0.000161534 4.14077e-25 -1.28748e-23 4.14077e-25 -1.02478e-42)
(-0.00013551 -6.15879e-07 6.02406e-25 -6.15879e-07 0.00013551 -6.78649e-26 6.02406e-25 -6.78649e-26 -2.6412e-45)
(-0.000127991 -5.72706e-07 -2.56643e-24 -5.72706e-07 0.000127991 -8.57248e-25 -2.56643e-24 -8.57248e-25 -4.58725e-44)
(-0.000101212 -4.44813e-07 8.07048e-24 -4.44813e-07 0.000101212 9.08754e-25 8.07048e-24 9.08754e-25 -6.3599e-43)
(-9.42731e-05 -4.04446e-07 -3.60632e-24 -4.04446e-07 9.42731e-05 4.90338e-24 -3.60632e-24 4.90338e-24 1.18688e-43)
(-7.46391e-05 -3.11209e-07 -8.18345e-25 -3.11209e-07 7.46391e-05 2.17162e-24 -8.18345e-25 2.17162e-24 5.44085e-44)
(-6.58019e-05 -2.6555e-07 -1.43178e-25 -2.6555e-07 6.58019e-05 -2.04449e-25 -1.43178e-25 -2.04449e-25 3.20097e-46)
(-5.36217e-05 -2.08558e-07 -2.33354e-24 -2.08558e-07 5.36217e-05 1.82275e-24 -2.33354e-24 1.82275e-24 -3.89743e-44)
(-4.55986e-05 -1.70227e-07 3.6576e-25 -1.70227e-07 4.55986e-05 3.9804e-25 3.6576e-25 3.9804e-25 5.16861e-46)
(-3.69857e-05 -1.31996e-07 -5.18196e-26 -1.31996e-07 3.69857e-05 -7.21921e-26 -5.18196e-26 -7.21921e-26 6.75857e-47)
(-3.05574e-05 -1.0388e-07 -1.42425e-26 -1.0388e-07 3.05574e-05 7.65488e-26 -1.42425e-26 7.65488e-26 1.85363e-46)
(-2.48461e-05 -8.01417e-08 -1.04985e-24 -8.01417e-08 2.48461e-05 7.14816e-25 -1.04985e-24 7.14816e-25 -2.36004e-44)
(-1.98478e-05 -6.0507e-08 8.93664e-25 -6.0507e-08 1.98478e-05 -6.48432e-25 8.93664e-25 -6.48432e-25 -1.88753e-44)
(-1.58593e-05 -4.55138e-08 2.57685e-25 -4.55138e-08 1.58593e-05 -3.3551e-25 2.57685e-25 -3.3551e-25 2.94221e-45)
(-1.26338e-05 -3.39916e-08 1.34183e-25 -3.39916e-08 1.26338e-05 -1.39008e-25 1.34183e-25 -1.39008e-25 1.12265e-46)
(-8.55878e-06 -2.14877e-08 1.09929e-26 -2.14877e-08 8.55878e-06 4.43134e-27 1.09929e-26 4.43134e-27 -1.18533e-47)
(-7.56006e-06 -1.76304e-08 1.6288e-25 -1.76304e-08 7.56006e-06 2.79612e-26 1.6288e-25 2.79612e-26 -3.40859e-45)
(-4.12147e-06 -8.86958e-09 4.67402e-26 -8.86958e-09 4.12147e-06 -1.7571e-26 4.67402e-26 -1.7571e-26 -4.54296e-46)
(-2.93856e-06 -5.8033e-09 2.59876e-26 -5.8033e-09 2.93856e-06 4.59493e-26 2.59876e-26 4.59493e-26 4.87062e-46)
(-9.20653e-07 -1.65456e-09 1.35379e-27 -1.65456e-09 9.20653e-07 -5.28017e-28 1.35379e-27 -5.28017e-28 -1.68508e-48)
(-8.95638e-08 -1.4546e-10 1.64085e-27 -1.4546e-10 8.95638e-08 4.22603e-30 1.64085e-27 4.22603e-30 -3.00611e-47)
(2.83906e-07 4.11118e-10 -3.63444e-28 4.11118e-10 -2.83906e-07 -9.43482e-29 -3.63444e-28 -9.43482e-29 4.34259e-49)
(2.882e-06 3.66869e-09 2.08747e-27 3.66869e-09 -2.882e-06 2.13511e-27 2.08747e-27 2.13511e-27 -6.58555e-50)
(2.14627e-06 2.36334e-09 -2.34555e-26 2.36334e-09 -2.14627e-06 -1.53195e-28 -2.34555e-26 -1.53195e-28 2.56325e-46)
(4.96094e-06 4.59768e-09 -2.43761e-26 4.59768e-09 -4.96094e-06 3.76004e-26 -2.43761e-26 3.76004e-26 -1.65552e-46)
(3.83798e-06 2.9039e-09 3.35641e-27 2.9039e-09 -3.83798e-06 2.58527e-26 3.35641e-27 2.58527e-26 -1.71175e-46)
(5.30183e-06 3.0969e-09 -9.47098e-27 3.0969e-09 -5.30183e-06 -7.89906e-27 -9.47098e-27 -7.89906e-27 5.16644e-48)
(5.02481e-06 2.07029e-09 -7.328e-27 2.07029e-09 -5.02481e-06 -2.10244e-27 -7.328e-27 -2.10244e-27 9.80974e-48)
(6.47694e-06 1.55638e-09 8.15867e-27 1.55638e-09 -6.47694e-06 3.08019e-27 8.15867e-27 3.08019e-27 8.81409e-48)
(6.35563e-06 4.3325e-10 1.11722e-28 4.3325e-10 -6.35563e-06 4.22528e-28 1.11722e-28 4.22528e-28 -2.61251e-50)
(6.98739e-06 -7.25267e-10 3.85838e-28 -7.25267e-10 -6.98739e-06 3.00519e-28 3.85838e-28 3.00519e-28 8.37725e-51)
(6.11206e-06 -1.68153e-09 -3.73104e-27 -1.68153e-09 -6.11206e-06 6.29797e-27 -3.73104e-27 6.29797e-27 -4.20984e-48)
(7.05057e-06 -3.15041e-09 -2.83707e-26 -3.15041e-09 -7.05057e-06 -3.9268e-28 -2.83707e-26 -3.9268e-28 1.14137e-46)
(6.40544e-06 -3.94745e-09 -8.00264e-28 -3.94745e-09 -6.40544e-06 -5.3446e-28 -8.00264e-28 -5.3446e-28 5.53041e-50)
(6.56449e-06 -5.153e-09 2.45059e-26 -5.153e-09 -6.56449e-06 -2.35412e-26 2.45059e-26 -2.35412e-26 7.19904e-48)
(5.34455e-06 -5.08405e-09 -1.43369e-27 -5.08405e-09 -5.34455e-06 -2.7878e-27 -1.43369e-27 -2.7878e-27 -1.07099e-48)
(5.8818e-06 -6.55481e-09 4.89479e-26 -6.55481e-09 -5.8818e-06 -4.38296e-26 4.89479e-26 -4.38296e-26 8.15471e-47)
(4.42962e-06 -5.64616e-09 -5.34989e-27 -5.64616e-09 -4.42962e-06 2.80979e-27 -5.34989e-27 2.80979e-27 4.68769e-48)
(4.75463e-06 -6.80204e-09 1.24128e-26 -6.80204e-09 -4.75463e-06 2.07752e-27 1.24128e-26 2.07752e-27 3.14823e-47)