/*--------------------------------*- C++ -*----------------------------------*\
| =========                 |                                                 |
| \\      /  F ield         | OpenFOAM: The Open Source CFD Toolbox           |
|  \\    /   O peration     | Version:  2006                                  |
|   \\  /    A nd           | Website:  www.openfoam.com                      |
|    \\/     M anipulation  |                                                 |
\*---------------------------------------------------------------------------*/
FoamFile
{
    version     2.0;
    format      ascii;
    class       volTensorField;
    location    "20000";
    object      T3;
}
// * * * * * * * * * * * * * * * * * * * * * * * * * * * * * * * * * * * * * //

dimensions      [0 0 0 0 0 0 0];


internalField   nonuniform List<tensor> 
14751
(
(0.00885026 1.85587e-06 3.81953e-26 1.85587e-06 0.00885026 -7.91184e-30 3.81953e-26 -7.91184e-30 -0.0177005)
(0.00891364 -1.24658e-06 -3.0961e-22 -1.24658e-06 0.00891364 3.50396e-25 -3.0961e-22 3.50396e-25 -0.0178273)
(0.00898595 2.34649e-06 -1.17607e-23 2.34649e-06 0.00898595 -2.76739e-24 -1.17607e-23 -2.76739e-24 -0.0179719)
(0.00899162 2.24751e-06 1.45159e-23 2.24751e-06 0.00899162 4.41387e-24 1.45159e-23 4.41387e-24 -0.0179832)
(0.00898404 3.60328e-06 1.43473e-23 3.60328e-06 0.00898405 -1.6896e-24 1.43473e-23 -1.6896e-24 -0.0179681)
(0.0089228 4.50701e-06 -3.37287e-23 4.50701e-06 0.00892281 -1.60056e-25 -3.37287e-23 -1.60056e-25 -0.0178456)
(0.00882213 4.86401e-06 -9.98363e-22 4.86401e-06 0.00882214 -5.99021e-25 -9.98363e-22 -5.99021e-25 -0.0176443)
(0.00868949 5.57969e-06 1.07181e-24 5.57969e-06 0.0086895 1.05798e-24 1.07181e-24 1.05798e-24 -0.017379)
(0.00851983 5.77485e-06 8.8948e-22 5.77485e-06 0.00851983 7.1183e-25 8.8948e-22 7.1183e-25 -0.0170397)
(0.00832312 6.01095e-06 1.35889e-23 6.01095e-06 0.00832313 1.39614e-26 1.35889e-23 1.39614e-26 -0.0166463)
(0.00810245 6.0281e-06 7.89444e-22 6.0281e-06 0.00810246 6.77969e-25 7.89444e-22 6.77969e-25 -0.0162049)
(0.00786188 6.02356e-06 3.4214e-26 6.02356e-06 0.00786189 -9.00419e-27 3.4214e-26 -9.00419e-27 -0.0157238)
(0.00760544 5.87935e-06 -6.7965e-22 5.87935e-06 0.00760545 -6.54364e-25 -6.7965e-22 -6.54364e-25 -0.0152109)
(0.00734045 5.62873e-06 -3.79563e-23 5.62873e-06 0.00734046 8.02463e-26 -3.79563e-23 8.02463e-26 -0.0146809)
(0.0070709 5.37452e-06 7.12767e-23 5.37452e-06 0.00707091 -1.70526e-24 7.12767e-23 -1.70526e-24 -0.0141418)
(0.00680086 4.99956e-06 -2.22155e-24 4.99956e-06 0.00680087 -1.68555e-25 -2.22155e-24 -1.68555e-25 -0.0136017)
(0.00653357 4.68015e-06 -6.0834e-23 4.68015e-06 0.00653358 7.25548e-25 -6.0834e-23 7.25548e-25 -0.0130671)
(0.00627109 4.25208e-06 2.90908e-23 4.25208e-06 0.00627109 1.09777e-25 2.90908e-23 1.09777e-25 -0.0125422)
(0.00601678 3.88467e-06 1.82843e-22 3.88467e-06 0.00601679 1.93758e-25 1.82843e-22 1.93758e-25 -0.0120336)
(0.00577228 3.46131e-06 2.47258e-23 3.46131e-06 0.00577228 4.23567e-26 2.47258e-23 4.23567e-26 -0.0115446)
(0.00553953 3.10716e-06 -4.21118e-26 3.10716e-06 0.00553954 -8.83899e-26 -4.21118e-26 -8.83899e-26 -0.0110791)
(0.00531818 2.71604e-06 -1.64588e-22 2.71604e-06 0.00531818 -1.13648e-25 -1.64588e-22 -1.13648e-25 -0.0106364)
(0.00510801 2.41629e-06 1.72011e-22 2.41629e-06 0.00510802 1.07359e-25 1.72011e-22 1.07359e-25 -0.010216)
(0.00490912 2.0806e-06 -1.79367e-22 2.0806e-06 0.00490913 -1.19381e-25 -1.79367e-22 -1.19381e-25 -0.00981825)
(0.00472247 1.82756e-06 1.72807e-23 1.82756e-06 0.00472248 9.67984e-26 1.72807e-23 9.67984e-26 -0.00944495)
(0.00454709 1.56973e-06 -5.52918e-26 1.56973e-06 0.0045471 -5.86317e-26 -5.52918e-26 -5.86317e-26 -0.00909419)
(0.00438328 1.36376e-06 2.10498e-30 1.36376e-06 0.00438328 -2.58053e-27 2.10498e-30 -2.58053e-27 -0.00876656)
(0.00423038 1.16993e-06 1.16625e-22 1.16993e-06 0.00423038 9.71816e-26 1.16625e-22 9.71816e-26 -0.00846076)
(0.00408824 1.00621e-06 7.02353e-24 1.00621e-06 0.00408824 6.92455e-26 7.02353e-24 6.92455e-26 -0.00817649)
(0.00395621 8.61816e-07 -6.91223e-24 8.61816e-07 0.00395621 7.68725e-27 -6.91223e-24 7.68725e-27 -0.00791243)
(0.00383396 7.38346e-07 6.72017e-24 7.38346e-07 0.00383396 -3.05857e-26 6.72017e-24 -3.05857e-26 -0.00766793)
(0.00372089 6.3163e-07 1.09895e-26 6.3163e-07 0.00372089 -3.14089e-26 1.09895e-26 -3.14089e-26 -0.00744177)
(0.00361658 5.39636e-07 4.61082e-23 5.39636e-07 0.00361658 3.06498e-26 4.61082e-23 3.06498e-26 -0.00723316)
(0.00352057 4.61618e-07 4.93462e-23 4.61618e-07 0.00352057 3.57315e-27 4.93462e-23 3.57315e-27 -0.00704114)
(0.00343229 4.0082e-07 3.29347e-24 4.0082e-07 0.00343229 -3.60078e-27 3.29347e-24 -3.60078e-27 -0.00686458)
(0.00335164 3.42502e-07 5.02161e-23 3.42502e-07 0.00335164 3.41638e-26 5.02161e-23 3.41638e-26 -0.00670327)
(0.00327824 2.99531e-07 -5.46234e-23 2.99531e-07 0.00327825 -3.0445e-26 -5.46234e-23 -3.0445e-26 -0.00655649)
(0.00321135 2.58685e-07 -1.11491e-25 2.58685e-07 0.00321135 -4.17265e-28 -1.11491e-25 -4.17265e-28 -0.0064227)
(0.00315077 2.26577e-07 3.50974e-24 2.26577e-07 0.00315077 1.53811e-27 3.50974e-24 1.53811e-27 -0.00630153)
(0.00309643 2.08961e-07 -1.87129e-24 2.08961e-07 0.00309643 -5.39403e-28 -1.87129e-24 -5.39403e-28 -0.00619286)
(0.0030484 1.87327e-07 -6.85024e-26 1.87327e-07 0.0030484 5.34163e-26 -6.85024e-26 5.34163e-26 -0.0060968)
(0.00300552 1.66855e-07 1.4173e-24 1.66855e-07 0.00300552 -7.53888e-25 1.4173e-24 -7.53888e-25 -0.00601104)
(0.00296772 1.45752e-07 1.13249e-29 1.45752e-07 0.00296772 -3.94178e-26 1.13249e-29 -3.94178e-26 -0.00593544)
(0.00293462 1.32593e-07 -1.33818e-25 1.32593e-07 0.00293462 -1.84487e-25 -1.33818e-25 -1.84487e-25 -0.00586924)
(0.00290592 1.17692e-07 -1.11834e-24 1.17692e-07 0.00290592 -1.49617e-26 -1.11834e-24 -1.49617e-26 -0.00581184)
(0.00288215 1.1407e-07 1.93239e-23 1.1407e-07 0.00288215 2.07791e-26 1.93239e-23 2.07791e-26 -0.0057643)
(0.00286313 1.03478e-07 8.72554e-24 1.03478e-07 0.00286313 -1.78836e-25 8.72554e-24 -1.78836e-25 -0.00572627)
(0.00284885 1.0266e-07 -9.27195e-24 1.0266e-07 0.00284885 -1.7813e-26 -9.27195e-24 -1.7813e-26 -0.0056977)
(0.00283915 9.5542e-08 2.00451e-29 9.5542e-08 0.00283915 2.47326e-30 2.00451e-29 2.47326e-30 -0.00567831)
(0.00283412 9.61672e-08 5.20401e-28 9.61672e-08 0.00283412 -1.96579e-26 5.20401e-28 -1.96579e-26 -0.00566824)
(0.00283378 9.31559e-08 -2.97921e-24 9.31559e-08 0.00283378 1.7821e-25 -2.97921e-24 1.7821e-25 -0.00566757)
(0.00283798 9.35534e-08 3.57544e-25 9.35534e-08 0.00283798 1.94102e-26 3.57544e-25 1.94102e-26 -0.00567596)
(0.00284666 9.33419e-08 1.54931e-24 9.33419e-08 0.00284666 7.83474e-28 1.54931e-24 7.83474e-28 -0.00569331)
(0.00286011 9.88306e-08 6.74743e-26 9.88306e-08 0.00286011 -8.97479e-28 6.74743e-26 -8.97479e-28 -0.00572022)
(0.00287836 9.99258e-08 -3.32378e-24 9.99258e-08 0.00287836 1.99997e-27 -3.32378e-24 1.99997e-27 -0.00575673)
(0.00290141 1.09574e-07 1.70516e-24 1.09574e-07 0.00290141 -9.00885e-28 1.70516e-24 -9.00885e-28 -0.00580282)
(0.00292931 1.12809e-07 1.06924e-26 1.12809e-07 0.00292931 2.38958e-26 1.06924e-26 2.38958e-26 -0.00585861)
(0.00296208 1.2747e-07 -2.49749e-25 1.2747e-07 0.00296208 -1.57906e-25 -2.49749e-25 -1.57906e-25 -0.00592415)
(0.0029999 1.31302e-07 -2.49044e-25 1.31302e-07 0.0029999 -1.00348e-25 -2.49044e-25 -1.00348e-25 -0.00599981)
(0.00304235 1.40655e-07 -9.30908e-24 1.40655e-07 0.00304235 -7.94634e-25 -9.30908e-24 -7.94634e-25 -0.0060847)
(0.00308934 1.48352e-07 -3.29584e-25 1.48352e-07 0.00308934 -1.08767e-25 -3.29584e-25 -1.08767e-25 -0.00617868)
(0.00314121 1.57538e-07 -2.57058e-25 1.57538e-07 0.00314121 -2.57216e-25 -2.57058e-25 -2.57216e-25 -0.00628243)
(0.00319781 1.7972e-07 1.58475e-22 1.7972e-07 0.00319781 1.55437e-24 1.58475e-22 1.55437e-24 -0.00639562)
(0.00326006 2.18486e-07 1.53032e-22 2.18486e-07 0.00326006 1.93813e-25 1.53032e-22 1.93813e-25 -0.00652012)
(0.00332793 2.38597e-07 -1.59041e-22 2.38597e-07 0.00332793 6.69898e-26 -1.59041e-22 6.69898e-26 -0.00665586)
(0.00340094 2.62864e-07 -3.61111e-29 2.62864e-07 0.00340094 -7.5595e-26 -3.61111e-29 -7.5595e-26 -0.00680188)
(0.00347916 2.93284e-07 2.23406e-23 2.93284e-07 0.00347916 4.36345e-25 2.23406e-23 4.36345e-25 -0.00695831)
(0.00356312 3.1896e-07 -2.18947e-23 3.1896e-07 0.00356312 1.22067e-25 -2.18947e-23 1.22067e-25 -0.00712625)
(0.00365305 3.4931e-07 -3.66877e-25 3.4931e-07 0.00365305 -1.90393e-25 -3.66877e-25 -1.90393e-25 -0.00730609)
(0.00374849 3.73233e-07 -1.91652e-22 3.73233e-07 0.00374849 -2.21062e-25 -1.91652e-22 -2.21062e-25 -0.00749699)
(0.00384937 4.07922e-07 3.94075e-25 4.07922e-07 0.00384937 1.99168e-25 3.94075e-25 1.99168e-25 -0.00769874)
(0.00395509 4.35796e-07 2.5891e-23 4.35796e-07 0.00395509 3.02329e-26 2.5891e-23 3.02329e-26 -0.00791018)
(0.00406574 4.62172e-07 3.97589e-22 4.62172e-07 0.00406574 -2.11158e-25 3.97589e-22 -2.11158e-25 -0.00813148)
(0.00418123 4.92431e-07 4.37941e-22 4.92431e-07 0.00418123 -2.15824e-25 4.37941e-22 -2.15824e-25 -0.00836246)
(0.00430151 5.11456e-07 5.63732e-23 5.11456e-07 0.00430151 -2.98016e-25 5.63732e-23 -2.98016e-25 -0.00860303)
(0.00442774 5.08984e-07 -1.7077e-25 5.08984e-07 0.00442774 -2.68582e-26 -1.7077e-25 -2.68582e-26 -0.00885548)
(0.00455936 5.61974e-07 -4.80126e-22 5.61974e-07 0.00455936 2.85172e-25 -4.80126e-22 2.85172e-25 -0.00911873)
(0.00469684 5.02814e-07 -4.94336e-22 5.02814e-07 0.00469684 2.94095e-25 -4.94336e-22 2.94095e-25 -0.00939367)
(0.00484031 5.60747e-07 6.40016e-23 5.60747e-07 0.00484031 8.32328e-26 6.40016e-23 8.32328e-26 -0.00968063)
(0.0049891 4.10932e-07 -6.57339e-23 4.10932e-07 0.0049891 -4.88605e-25 -6.57339e-23 -4.88605e-25 -0.0099782)
(0.00514409 4.42968e-07 5.35304e-22 4.42968e-07 0.00514409 -9.93335e-25 5.35304e-22 -9.93335e-25 -0.0102882)
(0.00530527 2.84752e-07 -1.31312e-24 2.84752e-07 0.00530527 -7.58267e-25 -1.31312e-24 -7.58267e-25 -0.0106105)
(0.00547439 2.13552e-07 7.09832e-23 2.13552e-07 0.00547439 -1.84574e-25 7.09832e-23 -1.84574e-25 -0.0109488)
(0.00564973 5.90952e-08 -1.44149e-22 5.90952e-08 0.00564973 2.23267e-25 -1.44149e-22 2.23267e-25 -0.0112995)
(0.00583278 -1.31678e-07 7.23006e-23 -1.31678e-07 0.00583278 -6.63261e-25 7.23006e-23 -6.63261e-25 -0.0116656)
(0.00602401 -3.07315e-07 1.20259e-21 -3.07315e-07 0.00602401 -1.89845e-24 1.20259e-21 -1.89845e-24 -0.012048)
(0.00622312 -5.42515e-07 -3.72858e-23 -5.42515e-07 0.00622312 6.85497e-25 -3.72858e-23 6.85497e-25 -0.0124462)
(0.00642991 -8.06397e-07 3.89805e-23 -8.06397e-07 0.00642992 1.14208e-25 3.89805e-23 1.14208e-25 -0.0128598)
(0.00664303 -1.02243e-06 0 -1.02243e-06 0.00664303 0 0 0 -0.0132861)
(0.00686286 -1.4136e-06 -2.01253e-23 -1.4136e-06 0.00686286 3.03907e-25 -2.01253e-23 3.03907e-25 -0.0137257)
(0.00708717 -1.65089e-06 1.7692e-23 -1.65089e-06 0.00708717 -1.79344e-24 1.7692e-23 -1.79344e-24 -0.0141743)
(0.00731282 -1.89031e-06 1.32331e-21 -1.89031e-06 0.00731283 -1.31931e-24 1.32331e-21 -1.31931e-24 -0.0146256)
(0.00754286 -2.43931e-06 5.01821e-24 -2.43931e-06 0.00754287 -1.37132e-25 5.01821e-24 -1.37132e-25 -0.0150857)
(0.00776701 -2.23058e-06 -3.13328e-23 -2.23058e-06 0.00776701 1.26889e-26 -3.13328e-23 1.26889e-26 -0.015534)
(0.00798578 -2.90641e-06 2.08758e-23 -2.90641e-06 0.00798579 1.00323e-26 2.08758e-23 1.00323e-26 -0.0159716)
(0.0081981 -2.55427e-06 6.56779e-22 -2.55427e-06 0.0081981 -5.26786e-25 6.56779e-22 -5.26786e-25 -0.0163962)
(0.00838523 -2.92886e-06 5.98372e-24 -2.92886e-06 0.00838523 5.24058e-25 5.98372e-24 5.24058e-25 -0.0167705)
(0.00854561 -6.11765e-07 5.19976e-24 -6.11765e-07 0.00854561 6.98449e-26 5.19976e-24 6.98449e-26 -0.0170912)
(0.00872185 -3.45492e-06 -5.08056e-31 -3.45492e-06 0.00872186 -1.17951e-27 -5.08056e-31 -1.17951e-27 -0.0174437)
(0.0691988 2.5382e-05 2.2904e-25 2.5382e-05 0.0691988 -1.05815e-22 2.2904e-25 -1.05815e-22 -0.138398)
(0.0694755 -1.32607e-05 2.21005e-21 -1.32607e-05 0.0694755 1.11723e-21 2.21005e-21 1.11723e-21 -0.138951)
(0.0697683 1.27997e-05 -1.99095e-22 1.27997e-05 0.0697683 1.60283e-22 -1.99095e-22 1.60283e-22 -0.139537)
(0.0697013 -7.91042e-07 2.50002e-22 -7.91042e-07 0.0697013 -5.30696e-23 2.50002e-22 -5.30696e-23 -0.139403)
(0.0694989 2.871e-06 1.66388e-20 2.871e-06 0.0694989 -5.42959e-23 1.66388e-20 -5.42959e-23 -0.138998)
(0.0689796 3.45911e-06 -1.59405e-20 3.45911e-06 0.0689796 -2.51716e-22 -1.59405e-20 -2.51716e-22 -0.137959)
(0.068176 -1.21311e-06 7.08636e-21 -1.21311e-06 0.068176 4.36657e-21 7.08636e-21 4.36657e-21 -0.136352)
(0.0671483 -4.7943e-07 -3.24467e-23 -4.7943e-07 0.0671483 6.47553e-22 -3.24467e-23 6.47553e-22 -0.134297)
(0.0658791 -3.70189e-06 -6.18313e-21 -3.70189e-06 0.0658791 -4.19109e-21 -6.18313e-21 -4.19109e-21 -0.131758)
(0.0644198 -4.7903e-06 -1.23767e-20 -4.7903e-06 0.0644198 -9.21144e-23 -1.23767e-20 -9.21144e-23 -0.12884)
(0.0627958 -6.76758e-06 6.50704e-21 -6.76758e-06 0.0627958 -4.015e-21 6.50704e-21 -4.015e-21 -0.125592)
(0.0610388 -7.69044e-06 -3.47658e-22 -7.69044e-06 0.0610388 -5.18723e-22 -3.47658e-22 -5.18723e-22 -0.122078)
(0.0591728 -8.82856e-06 4.5832e-21 -8.82856e-06 0.0591728 3.76474e-21 4.5832e-21 3.76474e-21 -0.118346)
(0.0572512 -9.83282e-06 -2.92939e-23 -9.83282e-06 0.0572512 4.31803e-22 -2.92939e-23 4.31803e-22 -0.114502)
(0.055305 -1.00345e-05 8.08475e-21 -1.00345e-05 0.0553049 -2.87209e-22 8.08475e-21 -2.87209e-22 -0.11061)
(0.0533586 -1.09456e-05 5.09654e-22 -1.09456e-05 0.0533586 -4.16072e-23 5.09654e-22 -4.16072e-23 -0.106717)
(0.051438 -1.05307e-05 -3.71853e-23 -1.05307e-05 0.051438 3.10759e-22 -3.71853e-23 3.10759e-22 -0.102876)
(0.0495543 -1.08992e-05 2.35152e-23 -1.08992e-05 0.0495542 -5.91936e-23 2.35152e-23 -5.91936e-23 -0.0991085)
(0.0477336 -1.02137e-05 -1.0138e-21 -1.02137e-05 0.0477336 -1.35886e-21 -1.0138e-21 -1.35886e-21 -0.0954672)
(0.04599 -1.00653e-05 -3.44976e-22 -1.00653e-05 0.0459899 -2.02095e-22 -3.44976e-22 -2.02095e-22 -0.0919799)
(0.0443418 -9.10956e-06 -3.62641e-25 -9.10956e-06 0.0443417 -6.98366e-23 -3.62641e-25 -6.98366e-23 -0.0886835)
(0.0427893 -8.88035e-06 7.74937e-22 -8.88035e-06 0.0427893 1.39422e-21 7.74937e-22 1.39422e-21 -0.0855786)
(0.0413172 -7.91393e-06 -6.87436e-22 -7.91393e-06 0.0413172 -1.40692e-21 -6.87436e-22 -1.40692e-21 -0.0826344)
(0.0399223 -7.7244e-06 -3.38912e-21 -7.7244e-06 0.0399222 1.39849e-21 -3.38912e-21 1.39849e-21 -0.0798445)
(0.0386108 -6.90602e-06 -2.00326e-21 -6.90602e-06 0.0386107 -5.17274e-23 -2.00326e-21 -5.17274e-23 -0.0772215)
(0.0373796 -6.5607e-06 2.35077e-22 -6.5607e-06 0.0373796 -5.30999e-24 2.35077e-22 -5.30999e-24 -0.0747592)
(0.0362283 -5.98158e-06 -2.06087e-21 -5.98158e-06 0.0362283 4.03012e-23 -2.06087e-21 4.03012e-23 -0.0724566)
(0.0351548 -5.59538e-06 -7.56318e-22 -5.59538e-06 0.0351548 -1.07316e-21 -7.56318e-22 -1.07316e-21 -0.0703095)
(0.0341567 -5.14558e-06 1.14084e-22 -5.14558e-06 0.0341566 -9.41851e-23 1.14084e-22 -9.41851e-23 -0.0683133)
(0.033231 -4.76043e-06 -1.11564e-22 -4.76043e-06 0.0332309 4.69109e-23 -1.11564e-22 4.69109e-23 -0.0664619)
(0.0323744 -4.37894e-06 -1.62193e-21 -4.37894e-06 0.0323744 -4.53236e-23 -1.62193e-21 -4.53236e-23 -0.0647487)
(0.0315847 -4.02612e-06 1.71192e-21 -4.02612e-06 0.0315847 1.92024e-23 1.71192e-21 1.92024e-23 -0.0631693)
(0.0308576 -3.68911e-06 1.05429e-21 -3.68911e-06 0.0308576 -4.02162e-22 1.05429e-21 -4.02162e-22 -0.0617151)
(0.030191 -3.41472e-06 5.57679e-22 -3.41472e-06 0.0301909 -4.49821e-22 5.57679e-22 -4.49821e-22 -0.0603819)
(0.0295809 -3.05101e-06 3.66668e-24 -3.05101e-06 0.0295809 -1.97651e-23 3.66668e-24 -1.97651e-23 -0.0591618)
(0.0290269 -2.83171e-06 -3.01303e-22 -2.83171e-06 0.0290269 -4.39596e-22 -3.01303e-22 -4.39596e-22 -0.0580538)
(0.0285272 -2.51273e-06 3.57497e-22 -2.51273e-06 0.0285272 4.09167e-22 3.57497e-22 4.09167e-22 -0.0570543)
(0.0280765 -2.31505e-06 -9.11471e-22 -2.31505e-06 0.0280765 2.12163e-23 -9.11471e-22 2.12163e-23 -0.056153)
(0.0276726 -2.01067e-06 4.12004e-24 -2.01067e-06 0.0276726 -1.97781e-23 4.12004e-24 -1.97781e-23 -0.0553453)
(0.0273172 -1.80374e-06 -2.2053e-24 -1.80374e-06 0.0273172 7.92795e-24 -2.2053e-24 7.92795e-24 -0.0546344)
(0.0270094 -1.62492e-06 -3.01182e-23 -1.62492e-06 0.0270094 6.23808e-25 -3.01182e-23 6.23808e-25 -0.0540188)
(0.0267417 -1.29667e-06 4.98666e-23 -1.29667e-06 0.0267417 -3.34709e-24 4.98666e-23 -3.34709e-24 -0.0534833)
(0.0265111 -1.19701e-06 -3.09891e-23 -1.19701e-06 0.0265111 -2.16131e-25 -3.09891e-23 -2.16131e-25 -0.0530221)
(0.0263166 -8.51613e-07 5.22619e-22 -8.51613e-07 0.0263166 1.27887e-24 5.22619e-22 1.27887e-24 -0.0526331)
(0.0261555 -7.55332e-07 5.46516e-22 -7.55332e-07 0.0261555 1.2628e-23 5.46516e-22 1.2628e-23 -0.0523109)
(0.0260324 -5.03622e-07 -1.19337e-22 -5.03622e-07 0.0260324 -9.73675e-23 -1.19337e-22 -9.73675e-23 -0.0520648)
(0.0259468 -3.49772e-07 6.66859e-24 -3.49772e-07 0.0259468 -5.59374e-23 6.66859e-24 -5.59374e-23 -0.0518935)
(0.0258984 -1.03424e-07 5.64832e-23 -1.03424e-07 0.0258984 4.25242e-23 5.64832e-23 4.25242e-23 -0.0517969)
(0.0258866 4.43801e-08 1.25148e-23 4.43801e-08 0.0258866 3.70388e-24 1.25148e-23 3.70388e-24 -0.0517733)
(0.0259129 2.91559e-07 -2.59618e-24 2.91559e-07 0.0259129 -9.84238e-25 -2.59618e-24 -9.84238e-25 -0.0518259)
(0.0259769 4.64669e-07 1.11623e-22 4.64669e-07 0.0259769 1.18745e-23 1.11623e-22 1.18745e-23 -0.0519538)
(0.0260773 6.98207e-07 4.37687e-25 6.98207e-07 0.0260773 5.14309e-25 4.37687e-25 5.14309e-25 -0.0521546)
(0.0262131 8.48414e-07 2.65563e-23 8.48414e-07 0.0262131 -4.53786e-24 2.65563e-23 -4.53786e-24 -0.0524262)
(0.0263873 1.08801e-06 -4.02101e-22 1.08801e-06 0.0263873 -1.82951e-24 -4.02101e-22 -1.82951e-24 -0.0527746)
(0.0265995 1.22662e-06 -2.97718e-23 1.22662e-06 0.0265995 9.60549e-24 -2.97718e-23 9.60549e-24 -0.0531989)
(0.0268508 1.46362e-06 -9.32689e-22 1.46362e-06 0.0268508 -2.65979e-24 -9.32689e-22 -2.65979e-24 -0.0537016)
(0.0271405 1.61117e-06 -2.20234e-24 1.61117e-06 0.0271405 -1.06228e-24 -2.20234e-24 -1.06228e-24 -0.0542809)
(0.0274697 1.87163e-06 5.22192e-23 1.87163e-06 0.0274697 1.01652e-24 5.22192e-23 1.01652e-24 -0.0549393)
(0.0278378 1.95444e-06 1.20006e-22 1.95444e-06 0.0278378 -3.20361e-24 1.20006e-22 -3.20361e-24 -0.0556757)
(0.0282421 2.29372e-06 -1.66535e-22 2.29372e-06 0.0282421 2.54423e-23 -1.66535e-22 2.54423e-23 -0.0564842)
(0.0286811 2.34569e-06 5.97845e-26 2.34569e-06 0.0286811 5.06888e-24 5.97845e-26 5.06888e-24 -0.0573622)
(0.0291572 2.63015e-06 -2.39766e-21 2.63015e-06 0.0291572 6.87879e-23 -2.39766e-21 6.87879e-23 -0.0583145)
(0.0296703 2.76504e-06 -7.77514e-22 2.76504e-06 0.0296703 -4.0997e-22 -7.77514e-22 -4.0997e-22 -0.0593406)
(0.0302275 2.92049e-06 1.39926e-21 2.92049e-06 0.0302275 -5.80244e-22 1.39926e-21 -5.80244e-22 -0.0604551)
(0.0308288 3.12284e-06 1.40185e-21 3.12284e-06 0.0308288 3.93374e-22 1.40185e-21 3.93374e-22 -0.0616576)
(0.0314692 3.26747e-06 1.97465e-21 3.26747e-06 0.0314692 7.17371e-23 1.97465e-21 7.17371e-23 -0.0629383)
(0.0321494 3.5108e-06 5.8461e-21 3.5108e-06 0.0321494 -6.38543e-23 5.8461e-21 -6.38543e-23 -0.0642987)
(0.0328736 3.571e-06 3.33155e-22 3.571e-06 0.0328736 3.34096e-23 3.33155e-22 3.34096e-23 -0.0657473)
(0.0336449 3.83089e-06 -3.73229e-22 3.83089e-06 0.0336449 -6.47033e-23 -3.73229e-22 -6.47033e-23 -0.0672898)
(0.034461 3.92345e-06 7.38794e-21 3.92345e-06 0.034461 5.06069e-22 7.38794e-21 5.06069e-22 -0.068922)
(0.035322 4.13029e-06 -6.29407e-21 4.13029e-06 0.035322 9.59189e-23 -6.29407e-21 9.59189e-23 -0.070644)
(0.0362211 4.22559e-06 -6.49429e-21 4.22559e-06 0.0362211 1.15261e-22 -6.49429e-21 1.15261e-22 -0.0724423)
(0.0371524 4.33063e-06 -2.09317e-21 4.33063e-06 0.0371523 -8.99526e-22 -2.09317e-21 -8.99526e-22 -0.0743047)
(0.0381134 4.50738e-06 -3.88461e-21 4.50738e-06 0.0381134 -1.27701e-21 -3.88461e-21 -1.27701e-21 -0.0762267)
(0.039105 4.6716e-06 -8.59354e-22 4.6716e-06 0.039105 -2.80728e-22 -8.59354e-22 -2.80728e-22 -0.07821)
(0.0401327 4.47361e-06 -9.17608e-22 4.47361e-06 0.0401327 -9.58981e-23 -9.17608e-22 -9.58981e-23 -0.0802653)
(0.041195 5.1562e-06 3.33486e-21 5.1562e-06 0.041195 1.04897e-21 3.33486e-21 1.04897e-21 -0.08239)
(0.0422897 4.52558e-06 -1.22408e-20 4.52558e-06 0.0422897 1.51666e-21 -1.22408e-20 1.51666e-21 -0.0845794)
(0.0434194 5.57346e-06 -9.5268e-22 5.57346e-06 0.0434193 4.89096e-23 -9.5268e-22 4.89096e-23 -0.0868387)
(0.044571 4.84662e-06 9.40477e-22 4.84662e-06 0.044571 3.04735e-22 9.40477e-22 3.04735e-22 -0.089142)
(0.0457551 6.04586e-06 -3.79467e-21 6.04586e-06 0.0457551 -1.35904e-21 -3.79467e-21 -1.35904e-21 -0.0915103)
(0.0469672 5.55575e-06 -1.84965e-20 5.55575e-06 0.0469671 -1.44395e-22 -1.84965e-20 -1.44395e-22 -0.0939343)
(0.0482182 6.36096e-06 -1.66116e-20 6.36096e-06 0.0482182 -1.6149e-22 -1.66116e-20 -1.6149e-22 -0.0964365)
(0.049496 6.69108e-06 -1.25403e-21 6.69108e-06 0.0494959 2.82668e-22 -1.25403e-21 2.82668e-22 -0.0989919)
(0.0508061 6.89653e-06 1.18179e-21 6.89653e-06 0.050806 3.57757e-22 1.18179e-21 3.57757e-22 -0.101612)
(0.0521538 7.47811e-06 -9.18059e-21 7.47811e-06 0.0521537 -3.2458e-21 -9.18059e-21 -3.2458e-21 -0.104308)
(0.0535325 7.61376e-06 -5.45688e-25 7.61376e-06 0.0535325 -3.69307e-22 -5.45688e-25 -3.69307e-22 -0.107065)
(0.0549378 7.72157e-06 1.24378e-21 7.72157e-06 0.0549378 -6.87625e-23 1.24378e-21 -6.87625e-23 -0.109876)
(0.0563591 8.31911e-06 -6.16988e-22 8.31911e-06 0.056359 -2.07319e-23 -6.16988e-22 -2.07319e-23 -0.112718)
(0.0577876 7.47023e-06 -3.24024e-22 7.47023e-06 0.0577875 4.6914e-23 -3.24024e-22 4.6914e-23 -0.115575)
(0.0592124 7.88181e-06 2.04409e-20 7.88181e-06 0.0592124 4.11868e-22 2.04409e-20 4.11868e-22 -0.118425)
(0.0606135 7.93822e-06 -9.55026e-21 7.93822e-06 0.0606135 -3.83012e-21 -9.55026e-21 -3.83012e-21 -0.121227)
(0.0619891 5.02703e-06 -2.03266e-20 5.02703e-06 0.0619891 -4.68433e-22 -2.03266e-20 -4.68433e-22 -0.123978)
(0.06331 8.68434e-06 2.04136e-20 8.68434e-06 0.06331 4.60272e-23 2.04136e-20 4.60272e-23 -0.12662)
(0.0645339 3.02755e-06 -3.06639e-22 3.02755e-06 0.0645339 1.89414e-22 -3.06639e-22 1.89414e-22 -0.129068)
(0.0656965 6.57989e-06 -4.3326e-21 6.57989e-06 0.0656965 -2.08127e-21 -4.3326e-21 -2.08127e-21 -0.131393)
(0.0666808 -3.96583e-07 9.89546e-21 -3.96583e-07 0.0666808 -2.56405e-22 9.89546e-21 -2.56405e-22 -0.133362)
(0.067588 1.784e-05 1.54387e-24 1.784e-05 0.067588 -1.55967e-23 1.54387e-24 -1.55967e-23 -0.135176)
(0.0684518 -1.71297e-05 7.32799e-26 -1.71297e-05 0.0684518 -1.77733e-24 7.32799e-26 -1.77733e-24 -0.136904)
(0.457759 0.000174757 3.89274e-25 0.000174757 0.457759 7.18935e-22 3.89274e-25 7.18935e-22 -0.915518)
(0.458424 -0.000144182 1.82382e-20 -0.000144182 0.458424 -7.76845e-21 1.82382e-20 -7.76845e-21 -0.916849)
(0.459661 3.36661e-05 1.13658e-19 3.36661e-05 0.459661 -1.16918e-22 1.13658e-19 -1.16918e-22 -0.919322)
(0.460038 -9.54211e-05 1.10893e-19 -9.54211e-05 0.460038 4.71055e-21 1.10893e-19 4.71055e-21 -0.920076)
(0.460061 -8.99455e-05 1.11935e-19 -8.99455e-05 0.460061 -9.68369e-20 1.11935e-19 -9.68369e-20 -0.920121)
(0.459147 -8.80551e-05 9.98346e-20 -8.80551e-05 0.459147 8.86299e-20 9.98346e-20 8.86299e-20 -0.918294)
(0.456522 -0.000130613 2.54948e-19 -0.000130613 0.456522 -2.5252e-20 2.54948e-19 -2.5252e-20 -0.913044)
(0.452872 -0.000118494 -1.85993e-19 -0.000118494 0.452871 -4.71393e-21 -1.85993e-19 -4.71393e-21 -0.905743)
(0.448068 -0.000132792 1.20369e-19 -0.000132792 0.448067 2.5572e-20 1.20369e-19 2.5572e-20 -0.896135)
(0.442223 -0.000129322 -9.20716e-20 -0.000129322 0.442222 9.01948e-20 -9.20716e-20 9.01948e-20 -0.884446)
(0.435451 -0.000132385 3.66015e-20 -0.000132385 0.43545 -5.37253e-20 3.66015e-20 -5.37253e-20 -0.870901)
(0.427874 -0.000128062 -1.8421e-22 -0.000128062 0.427873 1.96633e-21 -1.8421e-22 1.96633e-21 -0.855748)
(0.419607 -0.000125119 4.37164e-20 -0.000125119 0.419606 -2.71265e-20 4.37164e-20 -2.71265e-20 -0.839213)
(0.410888 -0.000120403 6.12539e-21 -0.000120403 0.410887 1.25854e-21 6.12539e-21 1.25854e-21 -0.821774)
(0.401898 -0.00010997 -6.19675e-20 -0.00010997 0.401897 -7.36492e-20 -6.19675e-20 -7.36492e-20 -0.803794)
(0.392719 -0.000107128 5.1256e-22 -0.000107128 0.392718 -7.00162e-21 5.1256e-22 -7.00162e-21 -0.785437)
(0.383517 -9.33975e-05 3.72765e-21 -9.33975e-05 0.383516 -1.76748e-22 3.72765e-21 -1.76748e-22 -0.767033)
(0.374338 -9.00046e-05 -9.63045e-20 -9.00046e-05 0.374337 -8.65011e-22 -9.63045e-20 -8.65011e-22 -0.748676)
(0.365345 -7.80251e-05 7.00287e-20 -7.80251e-05 0.365344 7.96144e-21 7.00287e-20 7.96144e-21 -0.730689)
(0.356641 -7.29807e-05 8.52506e-20 -7.29807e-05 0.356641 4.36934e-21 8.52506e-20 4.36934e-21 -0.713282)
(0.348417 -6.34033e-05 -4.6466e-21 -6.34033e-05 0.348416 5.23608e-22 -4.6466e-21 5.23608e-22 -0.696833)
(0.340739 -6.19206e-05 2.0549e-20 -6.19206e-05 0.340738 -7.40656e-21 2.0549e-20 -7.40656e-21 -0.681477)
(0.3334 -5.05909e-05 -7.98026e-20 -5.05909e-05 0.3334 4.75196e-21 -7.98026e-20 4.75196e-21 -0.6668)
(0.326331 -4.86616e-05 3.71571e-20 -4.86616e-05 0.326331 5.01378e-20 3.71571e-20 5.01378e-20 -0.652661)
(0.319622 -3.97462e-05 1.03426e-20 -3.97462e-05 0.319622 3.09522e-20 1.03426e-20 3.09522e-20 -0.639244)
(0.313254 -3.6114e-05 2.06298e-21 -3.6114e-05 0.313254 -3.01632e-21 2.06298e-21 -3.01632e-21 -0.626508)
(0.307251 -3.02958e-05 3.99454e-20 -3.02958e-05 0.307251 3.05968e-20 3.99454e-20 3.05968e-20 -0.614501)
(0.301604 -2.64897e-05 -7.31017e-21 -2.64897e-05 0.301603 9.7888e-21 -7.31017e-21 9.7888e-21 -0.603207)
(0.296324 -2.2063e-05 1.25297e-21 -2.2063e-05 0.296323 -1.02824e-21 1.25297e-21 -1.02824e-21 -0.592647)
(0.291403 -1.8692e-05 4.00546e-22 -1.8692e-05 0.291403 5.48074e-22 4.00546e-22 5.48074e-22 -0.582806)
(0.286838 -1.55626e-05 3.62462e-20 -1.55626e-05 0.286838 2.67093e-20 3.62462e-20 2.67093e-20 -0.573676)
(0.282619 -1.27113e-05 -3.8064e-20 -1.27113e-05 0.282619 -2.54147e-20 -3.8064e-20 -2.54147e-20 -0.565238)
(0.278743 -1.03695e-05 -1.35186e-20 -1.03695e-05 0.278742 -1.88956e-20 -1.35186e-20 -1.88956e-20 -0.557485)
(0.275194 -8.42077e-06 -8.73511e-21 -8.42077e-06 0.275194 -1.00871e-20 -8.73511e-21 -1.00871e-20 -0.550388)
(0.271974 -5.80626e-06 -1.04797e-21 -5.80626e-06 0.271974 -4.22446e-22 -1.04797e-21 -4.22446e-22 -0.543949)
(0.269076 -5.21181e-06 -1.74033e-20 -5.21181e-06 0.269076 3.3279e-21 -1.74033e-20 3.3279e-21 -0.538152)
(0.266509 -2.88244e-06 -9.05473e-21 -2.88244e-06 0.266509 -4.00379e-21 -9.05473e-21 -4.00379e-21 -0.533018)
(0.264238 -2.08169e-06 -7.04318e-21 -2.08169e-06 0.264238 1.19533e-20 -7.04318e-21 1.19533e-20 -0.528477)
(0.262263 -6.59579e-07 -1.15696e-21 -6.59579e-07 0.262263 4.51246e-22 -1.15696e-21 4.51246e-22 -0.524526)
(0.260594 -6.47831e-08 -1.43227e-20 -6.47831e-08 0.260594 -3.68878e-23 -1.43227e-20 -3.68878e-23 -0.521188)
(0.259235 2.06971e-07 -9.96208e-22 2.06971e-07 0.259235 3.17928e-22 -9.96208e-22 3.17928e-22 -0.51847)
(0.25814 2.11439e-06 5.61979e-22 2.11439e-06 0.25814 -5.73736e-22 5.61979e-22 -5.73736e-22 -0.516281)
(0.257285 1.58248e-06 -8.43573e-21 1.58248e-06 0.257285 5.16239e-22 -8.43573e-21 5.16239e-22 -0.51457)
(0.256672 3.67088e-06 -3.77687e-21 3.67088e-06 0.256673 -5.24662e-21 -3.77687e-21 -5.24662e-21 -0.513345)
(0.256288 2.84633e-06 6.77813e-22 2.84633e-06 0.256288 -5.86526e-21 6.77813e-22 -5.86526e-21 -0.512576)
(0.256163 3.93483e-06 -1.37354e-21 3.93483e-06 0.256163 5.79264e-22 -1.37354e-21 5.79264e-22 -0.512327)
(0.256297 3.72631e-06 -1.12158e-21 3.72631e-06 0.256297 5.38511e-22 -1.12158e-21 5.38511e-22 -0.512594)
(0.256696 4.79199e-06 9.70154e-22 4.79199e-06 0.256696 -3.52787e-22 9.70154e-22 -3.52787e-22 -0.513393)
(0.25736 4.68405e-06 1.35706e-23 4.68405e-06 0.25736 -1.24401e-22 1.35706e-23 -1.24401e-22 -0.51472)
(0.258299 5.1216e-06 4.27949e-23 5.1216e-06 0.258299 6.85314e-23 4.27949e-23 6.85314e-23 -0.516598)
(0.259506 4.44878e-06 -4.75601e-22 4.44878e-06 0.259506 -7.99258e-22 -4.75601e-22 -7.99258e-22 -0.519012)
(0.260941 5.08963e-06 -3.15002e-21 5.08963e-06 0.260941 -4.36098e-23 -3.15002e-21 -4.36098e-23 -0.521882)
(0.262632 4.57934e-06 -9.85762e-23 4.57934e-06 0.262632 -3.51386e-22 -9.85762e-23 -3.51386e-22 -0.525264)
(0.264586 4.64115e-06 2.96641e-21 4.64115e-06 0.264586 2.78974e-21 2.96641e-21 2.78974e-21 -0.529172)
(0.266808 3.73154e-06 -2.14494e-22 3.73154e-06 0.266808 -1.28701e-22 -2.14494e-22 -1.28701e-22 -0.533616)
(0.269295 4.04989e-06 6.73277e-21 4.04989e-06 0.269295 6.03105e-21 6.73277e-21 6.03105e-21 -0.53859)
(0.272042 3.00392e-06 -9.85707e-22 3.00392e-06 0.272042 5.2068e-22 -9.85707e-22 5.2068e-22 -0.544084)
(0.27505 3.17158e-06 2.15354e-21 3.17158e-06 0.27505 -2.33937e-22 2.15354e-21 -2.33937e-22 -0.5501)
(0.278302 1.00662e-06 -1.76024e-20 1.00662e-06 0.278302 -6.7499e-22 -1.76024e-20 -6.7499e-22 -0.556605)
(0.281773 2.23144e-06 3.46753e-20 2.23144e-06 0.281773 4.87128e-22 3.46753e-20 4.87128e-22 -0.563546)
(0.28544 -2.01144e-07 1.13291e-21 -2.01144e-07 0.28544 -1.15258e-21 1.13291e-21 -1.15258e-21 -0.57088)
(0.289319 2.66166e-07 1.39875e-20 2.66166e-07 0.289319 1.24277e-20 1.39875e-20 1.24277e-20 -0.578638)
(0.293403 -1.1696e-06 -9.37251e-21 -1.1696e-06 0.293403 5.13135e-21 -9.37251e-21 5.13135e-21 -0.586806)
(0.297725 -2.89495e-06 -3.11397e-20 -2.89495e-06 0.297725 -7.37354e-21 -3.11397e-20 -7.37354e-21 -0.59545)
(0.302272 -4.05248e-06 -3.03677e-20 -4.05248e-06 0.302272 -4.93842e-21 -3.03677e-20 -4.93842e-21 -0.604545)
(0.307003 -5.56368e-06 -1.97539e-20 -5.56368e-06 0.307003 -8.37649e-21 -1.97539e-20 -8.37649e-21 -0.614005)
(0.311911 -5.91052e-06 -4.11586e-20 -5.91052e-06 0.311911 -2.88698e-20 -4.11586e-20 -2.88698e-20 -0.623822)
(0.317003 -8.82471e-06 7.92429e-21 -8.82471e-06 0.317003 -4.49357e-21 7.92429e-21 -4.49357e-21 -0.634006)
(0.322313 -9.15451e-06 8.97197e-20 -9.15451e-06 0.322313 4.67061e-21 8.97197e-20 4.67061e-21 -0.644627)
(0.327833 -1.19369e-05 -2.72904e-20 -1.19369e-05 0.327833 -3.55432e-20 -2.72904e-20 -3.55432e-20 -0.655666)
(0.33359 -1.34037e-05 4.48654e-20 -1.34037e-05 0.33359 2.19956e-20 4.48654e-20 2.19956e-20 -0.667179)
(0.33948 -1.54336e-05 4.44826e-20 -1.54336e-05 0.33948 3.12515e-20 4.44826e-20 3.12515e-20 -0.678961)
(0.345391 -1.7048e-05 -3.25952e-20 -1.7048e-05 0.345391 7.60005e-21 -3.25952e-20 7.60005e-21 -0.690783)
(0.351301 -1.72907e-05 -3.6998e-20 -1.72907e-05 0.351301 1.37148e-20 -3.6998e-20 1.37148e-20 -0.702602)