/*--------------------------------*- C++ -*----------------------------------*\
| =========                 |                                                 |
| \\      /  F ield         | OpenFOAM: The Open Source CFD Toolbox           |
|  \\    /   O peration     | Version:  2006                                  |
|   \\  /    A nd           | Website:  www.openfoam.com                      |
|    \\/     M anipulation  |                                                 |
\*---------------------------------------------------------------------------*/
FoamFile
{
    version     2.0;
    format      ascii;
    class       volScalarField;
    location    "20000";
    object      T_t;
}
// * * * * * * * * * * * * * * * * * * * * * * * * * * * * * * * * * * * * * //

dimensions      [0 0 1 0 0 0 0];


internalField   nonuniform List<scalar> 
14751
(
0.39995
0.399882
0.399838
0.399844
0.399907
0.399951
0.399974
0.4
0.400024
0.400045
0.400063
0.400045
0.399987
0.399932
0.399892
0.399862
0.399845
0.399829
0.399811
0.399798
0.399798
0.399793
0.399793
0.399788
0.399788
0.399784
0.399783
0.399782
0.39978
0.399776
0.399776
0.399772
0.39977
0.399769
0.399768
0.399782
0.399807
0.399833
0.399863
0.399915
0.400004
0.400076
0.400138
0.400172
0.400179
0.400186
0.400196
0.400207
0.400215
0.400222
0.400232
0.400232
0.400222
0.400213
0.400205
0.400197
0.400188
0.400177
0.400169
0.400136
0.400079
0.400004
0.399917
0.399864
0.399838
0.399809
0.399785
0.399776
0.399783
0.39979
0.399801
0.399809
0.399815
0.399826
0.399834
0.399864
0.399914
0.39998
0.400054
0.400102
0.400126
0.400152
0.400175
0.400179
0.40016
0.400145
0.40013
0.4001
0.40006
0.400008
0.399951
0.399924
0.39993
0.399932
0.399935
0.399942
0.399954
0.399967
0.399988
1.18193
1.18235
1.18358
1.18504
1.18695
1.18881
1.19044
1.192
1.19341
1.19462
1.19564
1.19639
1.19681
1.19709
1.19727
1.19736
1.19739
1.19733
1.19722
1.19715
1.19719
1.19736
1.19751
1.19759
1.19765
1.19768
1.1977
1.1977
1.1977
1.19769
1.19767
1.19766
1.19765
1.19766
1.19766
1.19771
1.19782
1.19795
1.19809
1.19832
1.19865
1.19897
1.19922
1.19941
1.1995
1.1996
1.19971
1.19983
1.19996
1.20011
1.20029
1.20046
1.20059
1.20073
1.20088
1.20104
1.2012
1.20136
1.20152
1.20161
1.2016
1.20154
1.20144
1.20143
1.2015
1.20156
1.20162
1.20174
1.20193
1.20217
1.20245
1.20272
1.20292
1.20302
1.20303
1.20302
1.20297
1.20285
1.20265
1.20221
1.20161
1.20087
1.20002
1.199
1.19781
1.19657
1.19526
1.19385
1.19234
1.19074
1.18911
1.1875
1.18597
1.18453
1.18305
1.18193
1.181
1.18059
1.18067
3.29509
3.30036
3.31216
3.32769
3.34764
3.36984
3.39149
3.41408
3.43702
3.45982
3.48229
3.50415
3.52502
3.54522
3.56484
3.58373
3.602
3.61933
3.63605
3.65231
3.66861
3.68508
3.70087
3.71557
3.72947
3.7425
3.75472
3.76611
3.77674
3.78665
3.79584
3.80435
3.81221
3.81945
3.8261
3.83228
3.83809
3.84339
3.84822
3.85277
3.85711
3.86094
3.86414
3.86674
3.86866
3.87018
3.87131
3.87211
3.87257
3.87277
3.87264
3.87189
3.87069
3.86912
3.8672
3.86491
3.86225
3.8592
3.85569
3.85156
3.84672
3.8413
3.83534
3.82908
3.82251
3.81542
3.80779
3.79974
3.79147
3.7829
3.77416
3.76487
3.75465
3.74344
3.73122
3.71815
3.70428
3.68929
3.67336
3.65602
3.63766
3.61812
3.59776
3.57639
3.55419
3.53158
3.50855
3.48521
3.46167
3.438
3.41465
3.39158
3.36931
3.34856
3.3288
3.31253
3.29899
3.29058
3.2878
7.28014
7.30375
7.34889
7.40881
7.48497
7.57231
7.66222
7.75688
7.85224
7.94997
8.04901
8.14849
8.24706
8.34474
8.44131
8.53598
8.62877
8.71859
8.80599
8.89109
8.97514
9.059
9.13967
9.2158
9.28816
9.35637
9.42049
9.48053
9.53653
9.5886
9.63675
9.68105
9.72167
9.75866
9.79218
9.8224
9.8496
9.87367
9.89469
9.91306
9.92877
9.94159
9.95134
9.9582
9.96197
9.96325
9.96206
9.95863
9.95296
9.94509
9.93393
9.92022
9.90417
9.88593
9.86559
9.84312
9.81855
9.79191
9.76301
9.73178
9.69791
9.66175
9.62333
9.58297
9.54068
9.49613
9.44934
9.40048
9.35008
9.29835
9.24586
9.19158
9.13442
9.07432
9.01119
8.94538
8.87701
8.80536
8.73101
8.65319
8.57296
8.48971
8.40453
8.31723
8.22836
8.13903
8.04935
7.95993
7.87121
7.78355
7.69839
7.61524
7.53583
7.46274
7.39461
7.33875
7.29275
7.264
7.25598
12.3912
12.4574
12.5634
12.6993
12.8675
13.0595
13.2607
13.4741
13.6923
13.9117
14.1331
14.3576
14.5819
14.805
15.0256
15.2421
15.4538
15.6587
15.8573
16.0495
16.2369
16.4229
16.6005
16.7675
16.9248
17.0718
17.2085
17.3348
17.4509
17.557
17.6531
17.7394
17.8161
17.8835
17.9419
17.9915
18.033
18.0662
18.0916
18.1094
18.12
18.1233
18.1194
18.1087
18.0911
18.0673
18.0376
18.0025
17.9613
17.9132
17.8593
17.8004
17.7366
17.6683
17.5957
17.5191
17.4385
17.3541
17.2659
17.1741
17.0783
16.9791
16.8766
16.7711
16.6626
16.551
16.4363
16.3189
16.1995
16.0787
15.958
15.8359
15.7104
15.5813
15.4487
15.3128
15.1738
15.0309
14.8848
14.7348
14.5824
14.4265
14.2687
14.1089
13.948
13.7879
13.6287
13.4716
13.3175
13.167
13.0226
12.8832
12.7514
12.6323
12.5228
12.436
12.3659
12.3279
12.3311
17.4997
17.6381
17.8319
18.0692
18.3531
18.6715
19.0052
19.3572
19.7166
20.0785
20.4399
20.7972
21.153
21.5044
21.8492
22.1843
22.5083
22.8185
23.1151
23.3971
23.6651
23.9188
24.1558
24.3742
24.5752
24.7584
24.924
25.0721
25.203
25.3174
25.4152
25.4973
25.564
25.6158
25.6535
25.6774
25.6885
25.687
25.6736
25.6487
25.6131
25.567
25.5108
25.4453
25.3705
25.2876
25.1969
25.0974
24.9901
24.8756
24.7549
24.6287
24.4973
24.3614
24.2213
24.0774
23.9301
23.7797
23.6265
23.4706
23.312
23.1514
22.9887
22.8242
22.658
22.4902
22.3208
22.15
21.9783
21.806
21.6338
21.4607
21.2856
21.1083
20.9289
20.7478
20.5649
20.3797
20.1926
20.0032
19.8136
19.6216
19.4296
19.2372
19.0455
18.8561
18.6698
18.4883
18.3128
18.1441
17.9848
17.8343
17.6958
17.5745
17.4695
17.3933
17.3416
17.3289
17.3762
22.4098
22.6419
22.9425
23.298
23.7105
24.1645
24.6358
25.1266
25.6227
26.1175
26.6062
27.0842
27.5469
27.9956
28.4299
28.8455
29.2405
29.6117
29.9589
30.2808
30.5765
30.8427
31.0839
31.299
31.4897
31.656
31.7985
31.9178
32.0147
32.09
32.1446
32.1792
32.1948
32.1924
32.1727
32.1368
32.0857
32.02
31.9407
31.8487
31.7447
31.6298
31.5041
31.3693
31.2253
31.0721
30.9106
30.7419
30.5668
30.3864
30.2015
30.0127
29.8207
29.6259
29.4291
29.2308
29.0313
28.8311
28.6305
28.4298
28.2289
28.0284
27.8282
27.6285
27.4294
27.2308
27.0325
26.8347
26.6374
26.4402
26.2423
26.0439
25.8452
25.6461
25.4468
25.2475
25.0484
24.8493
24.6499
24.4486
24.2479
24.0473
23.849
23.653
23.4608
23.2741
23.0938
22.9215
22.7587
22.6063
22.4667
22.3396
22.2286
22.1393
22.0714
22.0381
22.0365
22.0849
22.1991
27.3784
27.7057
28.1148
28.5871
29.123
29.7033
30.2975
30.9077
31.5162
32.1145
32.697
33.2585
33.794
34.3012
34.7782
35.2269
35.6449
36.0291
36.3795
36.6947
36.9746
37.2184
37.431
37.6113
37.762
37.8832
37.9763
38.0424
38.0828
38.0986
38.0913
38.062
38.0119
37.9423
37.8547
37.7503
37.6299
37.4954
37.347
37.1867
37.0152
36.8336
36.6428
36.4423
36.2334
36.0178
35.7967
35.571
35.3415
35.1092
34.8749
34.6395
34.4037
34.168
33.9329
33.6995
33.4674
33.2376
33.0102
32.7852
32.5629
32.3433
32.1265
31.9124
31.7008
31.4914
31.2844
31.0786
30.8748
30.6718
30.4692
30.2672
30.0667
29.8673
29.6689
29.4728
29.2775
29.0802
28.884
28.6879
28.4948
28.3036
28.1166
27.9344
27.7583
27.5905
27.4319
27.2841
27.1486
27.0264
26.9199
26.8286
26.7566
26.7103
26.6892
26.7088
26.766
26.8823
27.0728
32.5554
32.9637
33.4708
34.0483
34.6938
35.3838
36.0816
36.7883
37.4833
38.1571
38.8033
39.4164
39.9916
40.5269
41.0208
41.4709
41.8787
42.2453
42.5697
42.8518
43.0926
43.2933
43.4578
43.5859
43.681
43.7433
43.7749
43.7778
43.7527
43.7025
43.6281
43.5312
43.4137
43.2769
43.1225
42.9521
42.7666
42.5683
42.3583
42.1376
41.9068
41.6668
41.4191
41.1651
40.9063
40.6434
40.3781
40.1113
39.844
39.5769
39.3115
39.0477
38.7867
38.529
38.2752
38.0255
37.7804
37.5408
37.3058
37.0761
36.8513
36.6318
36.4167
36.2063
36.0005
35.7979
35.5986
35.402
35.2079
35.0154
34.8246
34.6356
34.449
34.2643
34.0821
33.8988
33.7156
33.5322
33.3504
33.1696
32.9923
32.8182
32.6491
32.4858
32.3298
32.1838
32.0486
31.9256
31.8167
31.7223
31.6456
31.5855
31.5465
31.5364
31.5543
31.6187
31.7259
31.901
32.1609
38.0449
38.509
39.0955
39.7581
40.4917
41.2687
42.045
42.8223
43.5763
44.297
44.9781
45.6145
46.2017
46.7381
47.2232
47.6558
48.0374
48.3655
48.6453
48.8781
49.0666
49.2123
49.3191
49.3867
49.4193
49.4181
49.3853
49.3228
49.2329
49.1176
48.9788
48.8184
48.6382
48.44
48.2263
47.9983
47.7576
47.5057
47.2428
46.9712
46.6926
46.4078
46.1192
45.8275
45.5343
45.2408
44.9481
44.6578
44.37
44.0862
43.807
43.5333
43.2654
43.0044
42.7498
42.5032
42.264
42.0325
41.8084
41.5922
41.3828
41.1805
40.9848
40.7948
40.6108
40.4311
40.2553
40.0829
39.9141
39.747
39.5825
39.4207
39.2608
39.1032
38.9421
38.7803
38.619
38.4571
38.2964
38.136
37.979
37.824
37.674
37.5292
37.3918
37.2645
37.1475
37.0432
36.953
36.8776
36.82
36.779
36.7596
36.771
36.8125
36.9056
37.0457
37.2625
37.5764
43.8684
44.3646
45.0072
45.7309
46.5284
47.3671
48.1962
49.0179
49.8057
50.5482
51.2401
51.8768
52.4542
52.9722
53.4309
53.83
54.1716
54.4548
54.6853
54.8642
54.9947
55.0809
55.1265
55.1326
55.1032
55.0397
54.9457
54.8222
54.6721
54.4985
54.3024
54.0872
53.8534
53.6041
53.3408
53.0647
52.7784
52.4836
52.1813
51.874
51.5629
51.2498
50.9361
50.6234
50.3129
50.0057
49.7033
49.4063
49.1158
48.8332
48.558
48.2924
48.0354
47.7888
47.552
47.3256
47.1097
46.9039
46.7078
46.5221
46.3449
46.1766
46.0159
45.8627
45.7154
45.5735
45.4359
45.3021
45.1711
45.043
44.9166
44.7925
44.6697
44.5409
44.4087
44.2756
44.1409
44.0037
43.8661
43.7267
43.5886
43.4506
43.3156
43.1836
43.0573
42.9395
42.8304
42.7328
42.6478
42.5761
42.5214
42.4816
42.4627
42.4759
42.5197
42.6195
42.7703
43.0067
43.3541
50.0232
50.5259
51.1999
51.961
52.798
53.6745
54.5336
55.3777
56.1773
56.9219
57.6066
58.2269
58.7805
59.2676
59.6896
60.0466
60.3421
60.5764
60.7547
60.88
60.9566
60.9883
60.9787
60.9288
60.8435
60.7251
60.5763
60.3997
60.1988
59.975
59.7316
59.4702
59.194
58.9045
58.6036
58.2933
57.9763
57.6541
57.3287
57.0016
56.6746
56.3497
56.0276
55.7105
55.4
55.0963
54.8009
54.5148
54.2393
53.9749
53.7219
53.4817
53.2539
53.0385
52.8363
52.6477
52.4721
52.3087
52.1574
52.0176
51.889
51.7696
51.6587
51.5561
51.4596
51.3689
51.2818
51.1983
51.1168
51.037
50.9577
50.8787
50.792
50.6976
50.5984
50.495
50.3874
50.2736
50.1561
50.0324
49.907
49.7774
49.6474
49.5169
49.3886
49.2655
49.1485
49.0396
48.9411
48.8529
48.7794
48.7184
48.6766
48.6666
48.688
48.7688
48.904
49.1338
49.4882
56.4997
56.9834
57.6658
58.4426
59.2976
60.1914
61.062
61.9107
62.7067
63.4403
64.1059
64.7007
65.2228
65.6733
66.0548
66.3681
66.6181
66.8043
66.9343
67.011
67.0388
67.022
66.9646
66.8673
66.736
66.5726
66.3805
66.1629
65.9224
65.6619
65.3842
65.0918
64.7871
64.4723
64.1495
63.8212
63.4898
63.1567
62.8242
62.4941
62.1677
61.8482
61.5353
61.2312
60.9373
60.6549
60.3838
60.1266
59.8827
59.6541
59.4404
59.243
59.061
58.8944
58.7437
58.6088
58.4893
58.3842
58.2933
58.2146
58.1479
58.0915
58.044
58.0046
57.9706
57.9416
57.9155
57.8906
57.8661
57.8408
57.8132
57.7778
57.7283
57.6691
57.6008
57.5242
57.4385
57.3412
57.2348
57.1163
56.9913
56.8567
56.7162
56.5697
56.421
56.273
56.1267
55.9844
55.8485
55.7196
55.6018
55.4932
55.4017
55.3416
55.3124
55.3463
55.4383
55.6338
55.967
63.2924
63.7343
64.4046
65.1789
66.0351
66.9307
67.7986
68.6409
69.4239
70.1386
70.7799
71.3454
71.8348
72.25
72.5932
72.867
73.0762
73.2217
73.311
73.3479
73.3369
73.2818
73.1878
73.0552
72.8896
72.6951
72.4733
72.2284
71.9639
71.6819
71.386
71.0777
70.761
70.4373
70.1096
69.78
69.4505
69.124
68.8022
68.4862
68.1791
67.8813
67.5951
67.3216
67.0619
66.8171
66.5883
66.3769
66.1825
66.0064
65.849
65.7103
65.5902
65.4886
65.4051
65.3396
65.2909
65.2587
65.2413
65.2373
65.2452
65.2637
65.2902
65.3238
65.3618
65.402
65.443
65.4823
65.5184
65.5489
65.5718
65.5735
65.5595
65.5309
65.487
65.4284
65.3537
65.2609
65.1517
65.0234
64.8816
64.7228
64.5515
64.3683
64.176
63.9788
63.7778
63.5762
63.3759
63.1786
62.9886
62.8039
62.6334
62.4942
62.3856
62.3438
62.3648
62.4979
62.7846
70.4056
70.786
71.4284
72.1855
73.0303
73.9172
74.7749
75.6041
76.3709
77.0647
77.6822
78.2218
78.6824
79.0671
79.3797
79.6225
79.8013
79.9169
79.9774
79.9864
79.9494
79.8706
79.7539
79.6004
79.4168
79.2063
78.9712
78.7157
78.4436
78.1566
77.8589
77.5532
77.2417
76.9265
76.6116
76.2983
75.9894
75.6872
75.3933
75.1098
74.8383
74.5806
74.3382
74.1129
73.9044
73.715
73.5454
73.3962
73.2673
73.1609
73.0754
73.0111
72.9683
72.9462
72.9441
72.9617
72.9977
73.0502
73.1182
73.2001
73.2923
73.3945
73.5032
73.6165
73.7312
73.8449
73.9549
74.059
74.1545
74.2384
74.3004
74.3357
74.3494
74.3408
74.3098
74.2559
74.1781
74.0726
73.9426
73.7848
73.6048
73.3993
73.173
72.9274
72.6657
72.3926
72.1092
71.8195
71.5257
71.2306
70.9384
70.6481
70.3693
70.121
69.9047
69.7588
69.6814
69.727
69.9427
77.8551
78.1589
78.759
79.4901
80.3153
81.1873
82.0319
82.849
83.6001
84.2772
84.8769
85.3973
85.8379
86.2035
86.4971
86.7216
86.883
86.9831
87.0296
87.0264
86.9793
86.8925
86.7703
86.6137
86.4292
86.2199
85.9902
85.7417
85.4802
85.2069
84.9263
84.6407
84.3526
84.0652
83.7813
83.5032
83.2322
82.9723
82.7247
82.4911
82.2729
82.0731
81.8913
81.7307
81.5906
81.4733
81.3783
81.3076
81.2605
81.2371
81.2387
81.2635
81.3116
81.3822
81.4739
81.5862
81.7163
81.8641
82.0261
82.2007
82.3847
82.576
82.7702
82.9663
83.1586
83.3456
83.5232
83.688
83.8367
83.9644
84.0542
84.1133
84.1429
84.1415
84.1076
84.0412
83.9409
83.8032
83.6305
83.4198
83.1777
82.9004
82.5937
82.2582
81.8988
81.521
81.1259
80.7185
80.302
79.8792
79.4548
79.0286
78.6125
78.2261
77.8737
77.5969
77.3957
77.3304
77.4542
85.6648
85.8811
86.4303
87.1289
87.9314
88.7884
89.6219
90.4298
91.1729
91.8417
92.433
92.9453
93.3801
93.7398
94.0291
94.2512
94.4123
94.5139
94.5643
94.5675
94.5292
94.4531
94.344
94.2032
94.0373
93.8492
93.6432
93.4221
93.19
92.9502
92.7057
92.4595
92.2144
91.9734
91.7389
91.5136
91.2999
91.1
90.9158
90.7495
90.6025
90.4764
90.3728
90.2926
90.2366
90.206
90.2012
90.2229
90.2708
90.3453
90.4457
90.5715
90.7213
90.8944
91.0894
91.3046
91.5376
91.7865
92.0482
92.3199
92.598
92.8794
93.1601
93.4366
93.7045
93.9596
94.198
94.4153
94.6082
94.7611
94.8694
94.9388
94.9688
94.9573
94.9024
94.8037
94.66
94.4676
94.2289
93.9413
93.6113
93.2358
92.8209
92.368
91.8826
91.3709
90.8352
90.2809
89.712
89.1315
88.5461
87.9557
87.3731
86.822
86.3069
85.8737
85.5249
85.327
85.341
93.8692
93.9905
94.4823
95.1467
95.9273
96.7726
97.6016
98.4093
99.1543
99.827
100.424
100.944
101.389
101.76
102.063
102.302
102.482
102.605
102.679
102.709
102.699
102.654
102.579
102.475
102.348
102.202
102.04
101.866
101.684
101.497
101.309
101.122
100.939
100.763
100.596
100.442
100.303
100.18
100.077
99.9943
99.934
99.8977
99.8867
99.9018
99.9437
100.013
100.111
100.238
100.392
100.574
100.783
101.019
101.278
101.561
101.865
102.188
102.527
102.88
103.243
103.612
103.983
104.352
104.715
105.067
105.402
105.717
106.006
106.264
106.486
106.649
106.762
106.825
106.839
106.798
106.702
106.55
106.341
106.071
105.742
105.353
104.909
104.409
103.86
103.262
102.623
101.95
101.245
100.515
99.766
98.9999
98.2258
97.4436
96.6685
95.9264
95.2243
94.6115
94.0944
93.7451
93.6335
102.508
102.53
102.961
103.593
104.356
105.197
106.032
106.851
107.613
108.305
108.925
109.471
109.944
110.347
110.685
110.961
111.181
111.347
111.466
111.544
111.585
111.594
111.574
111.528
111.461
111.378
111.282
111.176
111.064
110.95
110.837
110.728
110.625
110.533
110.452
110.386
110.338
110.309
110.302
110.318
110.358
110.425
110.519
110.642
110.793
110.974
111.184
111.424
111.693
111.99
112.314
112.664
113.038
113.434
113.849
114.281
114.726
115.181
115.642
116.105
116.563
117.014
117.451
117.869
118.263
118.626
118.952
119.236
119.466
119.627
119.728
119.769
119.746
119.658
119.5
119.274
118.978
118.607
118.166
117.651
117.07
116.422
115.712
114.944
114.125
113.264
112.364
111.433
110.477
109.5
108.511
107.513
106.52
105.564
104.652
103.839
103.135
102.618
102.369
111.625
111.544
111.916
112.52
113.273
114.121
114.974
115.821
116.616
117.346
118.008
118.6
119.124
119.58
119.975
120.311
120.594
120.825
121.013
121.161
121.276
121.36
121.418
121.451
121.467
121.467
121.457
121.439
121.417
121.396
121.377
121.363
121.359
121.366
121.387
121.425
121.482
121.561
121.663
121.789
121.942
122.123
122.333
122.572
122.84
123.139
123.468
123.827
124.214
124.63
125.072
125.538
126.026
126.534
127.059
127.597
128.144
128.696
129.249
129.797
130.335
130.858
131.358
131.831
132.269
132.666
133.016
133.312
133.53
133.673
133.747
133.747
133.671
133.515
133.278
132.958
132.554
132.063
131.487
130.825
130.086
129.266
128.373
127.412
126.391
125.319
124.201
123.045
121.859
120.648
119.422
118.184
116.954
115.762
114.621
113.59
112.683
111.985
111.587
121.263
121.081
121.396
121.978
122.733
123.601
124.488
125.38
126.227
127.016
127.742
128.402
128.999
129.532
130.007
130.425
130.795
131.115
131.394
131.636
131.846
132.028
132.186
132.32
132.438
132.543
132.638
132.727
132.814
132.902
132.994
133.093
133.201
133.323
133.459
133.614
133.788
133.985
134.206
134.452
134.726
135.028
135.359
135.72
136.111
136.531
136.981
137.46
137.967
138.501
139.058
139.638
140.237
140.852
141.48
142.117
142.759
143.4
144.035
144.659
145.266
145.848
146.399
146.913
147.381
147.798
148.154
148.442
148.636
148.748
148.778
148.722
148.575
148.336
148.001
147.569
147.041
146.411
145.684
144.857
143.939
142.929
141.835
140.662
139.419
138.116
136.76
135.36
133.924
132.459
130.977
129.481
127.993
126.548
125.163
123.897
122.773
121.884
121.329
131.466
131.184
131.446
132.018
132.787
133.69
134.63
135.586
136.506
137.375
138.187
138.939
139.631
140.264
140.842
141.368
141.847
142.279
142.672
143.03
143.358
143.658
143.936
144.191
144.431
144.659
144.877
145.09
145.301
145.513
145.73
145.954
146.188
146.435
146.698
146.978
147.278
147.6
147.947
148.319
148.717
149.144
149.599
150.083
150.596
151.138
151.707
152.304
152.927
153.573
154.241
154.928
155.631
156.345
157.068
157.795
158.52
159.239
159.945
160.633
161.294
161.923
162.511
163.051
163.535
163.956
164.304
164.566
164.725
164.791
164.763
164.636
164.406
164.068
163.622
163.065
162.397
161.615
160.721
159.716
158.606
157.391
156.081
154.681
153.2
151.651
150.042
148.382
146.681
144.946
143.192
141.423
139.663
137.95
136.305
134.793
133.443
132.352
131.637
142.273
141.893
142.11
142.682
143.48
144.435
145.446
146.486
147.501
148.472
149.393
150.259
151.07
151.827
152.532
153.187
153.797
154.364
154.892
155.386
155.851
156.289
156.705
157.099
157.477
157.843
158.2
158.55
158.898
159.247
159.599
159.958
160.326
160.706
161.101
161.512
161.942
162.394
162.868
163.367
163.891
164.441
165.018
165.623
166.254
166.913
167.596
168.304
169.035
169.787
170.556
171.342
172.137
172.94
173.746
174.551
175.347
176.131
176.895
177.631
178.334
178.995
179.606
180.159
180.645
181.057
181.385
181.604
181.716
181.726
181.629
181.419
181.094
180.648
180.079
179.387
178.57
177.625
176.555
175.361
174.049
172.62
171.084
169.446
167.718
165.913
164.038
162.108
160.129
158.115
156.076
154.023
151.979
149.988
148.074
146.307
144.721
143.424
142.546
153.713
153.24
153.421
154.005
154.849
155.874
156.975
158.12
159.25
160.345
161.397
162.4
163.352
164.253
165.106
165.911
166.674
167.394
168.077
168.725
169.344
169.937
170.506
171.052
171.582
172.098
172.604
173.102
173.596
174.088
174.583
175.082
175.589
176.105
176.634
177.178
177.738
178.318
178.918
179.54
180.186
180.855
181.549
182.267
183.01
183.776
184.565
185.375
186.204
187.049
187.909
188.78
189.656
190.534
191.411
192.279
193.133
193.968
194.775
195.547
196.277
196.956
197.576
198.128
198.603
198.992
199.287
199.456
199.513
199.456
199.282
198.982
198.554
197.993
197.295
196.461
195.49
194.377
193.127
191.739
190.22
188.573
186.806
184.926
182.945
180.877
178.733
176.524
174.264
171.961
169.632
167.287
164.954
162.677
160.487
158.458
156.634
155.128
154.085
165.812
165.248
165.405
166.014
166.919
168.032
169.242
170.511
171.776
173.016
174.22
175.379
176.492
177.558
178.577
179.552
180.484
181.374
182.226
183.043
183.83
184.589
185.323
186.032
186.723
187.397
188.058
188.708
189.353
189.993
190.632
191.272
191.917
192.569
193.229
193.902
194.589
195.291
196.011
196.75
197.509
198.289
199.09
199.912
200.755
201.618
202.499
203.398
204.313
205.239
206.175
207.117
208.06
209
209.931
210.849
211.746
212.617
213.453
214.248
214.991
215.676
216.293
216.833
217.285
217.642
217.89
218.006
218.001
217.872
217.615
217.221
216.686
216.007
215.179
214.202
213.075
211.794
210.364
208.782
207.058
205.193
203.196
201.074
198.84
196.511
194.095
191.609
189.064
186.473
183.851
181.212
178.586
176.02
173.553
171.261
169.195
167.481
166.277
178.578
177.931
178.073
178.722
179.704
180.921
182.257
183.668
185.088
186.491
187.863
189.197
190.488
191.734
192.936
194.093
195.209
196.281
197.315
198.311
199.275
200.209
201.113
201.991
202.846
203.681
204.499
205.303
206.097
206.883
207.664
208.441
209.22
210.001
210.787
211.581
212.386
213.202
214.031
214.876
215.738
216.616
217.512
218.425
219.354
220.3
221.26
222.234
223.219
224.211
225.208
226.206
227.2
228.186
229.158
230.11
231.036
231.929
232.781
233.584
234.33
235.009
235.611
236.128
236.551
236.867
237.062
237.119
237.049
236.846
236.504
236.015
235.375
234.579
233.623
232.506
231.227
229.784
228.178
226.409
224.485
222.408
220.187
217.83
215.35
212.763
210.083
207.323
204.499
201.622
198.711
195.781
192.864
190.012
187.269
184.715
182.411
180.49
179.129
192.009
191.288
191.427
192.128
193.201
194.537
196.015
197.583
199.172
200.753
202.309
203.831
205.313
206.752
208.148
209.499
210.807
212.07
213.291
214.472
215.617
216.727
217.804
218.849
219.868
220.862
221.834
222.788
223.726
224.651
225.566
226.473
227.376
228.276
229.177
230.081
230.991
231.908
232.835
233.773
234.722
235.684
236.659
237.647
238.648
239.661
240.684
241.716
242.755
243.797
244.84
245.877
246.907
247.924
248.921
249.893
250.834
251.737
252.592
253.392
254.127
254.79
255.37
255.857
256.243
256.516
256.652
256.65
256.515
256.237
255.812
255.231
254.489
253.581
252.504
251.255
249.834
248.237
246.466
244.521
242.41
240.132
237.699
235.118
232.404
229.572
226.637
223.615
220.52
217.367
214.176
210.962
207.763
204.632
201.618
198.808
196.272
194.15
192.639
206.09
205.302
205.449
206.215
207.392
208.859
210.491
212.229
213.998
215.768
217.519
219.238
220.92
222.559
224.156
225.705
227.209
228.665
230.075
231.441
232.765
234.048
235.295
236.503
237.68
238.826
239.944
241.037
242.109
243.162
244.199
245.223
246.237
247.243
248.245
249.245
250.245
251.248
252.255
253.268
254.289
255.318
256.356
257.403
258.458
259.52
260.59
261.663
262.739
263.814
264.884
265.948
266.997
268.03
269.038
270.017
270.96
271.858
272.705
273.491
274.208
274.846
275.397
275.849
276.192
276.418
276.497
276.437
276.238
275.891
275.387
274.722
273.885
272.876
271.688
270.319
268.769
267.032
265.113
263.007
260.724
258.264
255.635
252.848
249.918
246.858
243.684
240.416
237.067
233.653
230.195
226.712
223.242
219.843
216.57
213.513
210.753
208.442
206.79
220.787
219.943
220.109
220.949
222.24
223.848
225.642
227.557
229.515
231.48
233.431
235.353
237.238
239.08
240.876
242.624
244.323
245.969
247.563
249.108
250.604
252.054
253.46
254.821
256.143
257.428
258.68
259.899
261.091
262.256
263.401
264.526
265.634
266.729
267.814
268.892
269.965
271.035
272.105
273.175
274.25
275.327
276.41
277.497
278.589
279.683
280.78
281.879
282.974
284.066
285.149
286.221
287.276
288.309
289.316
290.288
291.22
292.104
292.933
293.697
294.387
294.995
295.509
295.922
296.222
296.398
296.424
296.31
296.051
295.64
295.066
294.324
293.407
292.308
291.025
289.553
287.889
286.033
283.983
281.738
279.304
276.684
273.885
270.915
267.789
264.524
261.136
257.642
254.06
250.406
246.701
242.966
239.243
235.593
232.076
228.788
225.818
223.328
221.545
236.051
235.163
235.356
236.278
237.689
239.444
241.406
243.501
245.649
247.812
249.963
252.086
254.172
256.213
258.205
260.146
262.032
263.859
265.629
267.34
268.997
270.599
272.149
273.648
275.101
276.509
277.875
279.204
280.496
281.757
282.989
284.196
285.379
286.544
287.692
288.828
289.954
291.071
292.185
293.294
294.402
295.511
296.618
297.727
298.837
299.945
301.053
302.157
303.258
304.349
305.431
306.496
307.541
308.563
309.554
310.507
311.418
312.277
313.079
313.813
314.47
315.043
315.52
315.891
316.146
316.274
316.252
316.088
315.778
315.31
314.678
313.873
312.888
311.717
310.355
308.797
307.044
305.089
302.933
300.574
298.018
295.263
292.32
289.195
285.903
282.461
278.885
275.195
271.407
267.537
263.61
259.648
255.695
251.815
248.074
244.574
241.412
238.756
236.858
251.814
250.896
251.124
252.133
253.668
255.57
257.698
259.973
262.31
264.666
267.012
269.329
271.608
273.839
276.017
278.138
280.198
282.193
284.121
285.984
287.784
289.52
291.197
292.814
294.376
295.886
297.348
298.763
300.136
301.47
302.768
304.035
305.272
306.485
307.676
308.849
310.006
311.152
312.288
313.416
314.539
315.657
316.771
317.884
318.992
320.098
321.199
322.294
323.381
324.457
325.52
326.566
327.589
328.585
329.548
330.474
331.353
332.18
332.946
333.644
334.264
334.797
335.233
335.562
335.775
335.86
335.795
335.589
335.235
334.723
334.044
333.189
332.155
330.928
329.508
327.89
326.07
324.042
321.808
319.365
316.715
313.858
310.803
307.555
304.131
300.545
296.813
292.958
288.995
284.943
280.825
276.664
272.509
268.425
264.485
260.795
257.46
254.66
252.66
267.997
267.058
267.328
268.427
270.084
272.131
274.421
276.869
279.386
281.925
284.454
286.955
289.413
291.818
294.167
296.451
298.666
300.808
302.876
304.87
306.79
308.639
310.418
312.13
313.78
315.369
316.9
318.381
319.81
321.193
322.535
323.837
325.106
326.344
327.556
328.744
329.912
331.064
332.202
333.328
334.445
335.555
336.658
337.755
338.846
339.931
341.009
342.078
343.138
344.183
345.216
346.228
347.215
348.174
349.1
349.985
350.825
351.612
352.337
352.994
353.573
354.064
354.459
354.75
354.921
354.964
354.865
354.624
354.236
353.692
352.982
352.095
351.025
349.766
348.312
346.656
344.795
342.726
340.444
337.947
335.235
332.312
329.181
325.849
322.328
318.635
314.788
310.805
306.705
302.505
298.23
293.906
289.581
285.327
281.215
277.362
273.879
270.954
268.869
284.499
283.552
283.868
285.056
286.832
289.015
291.459
294.066
296.749
299.457
302.154
304.82
307.437
309.998
312.496
314.921
317.268
319.534
321.717
323.815
325.831
327.766
329.623
331.404
333.112
334.755
336.332
337.85
339.311
340.718
342.079
343.395
344.671
345.912
347.121
348.302
349.461
350.599
351.718
352.824
353.916
354.999
356.071
357.136
358.191
359.239
360.278
361.307
362.325
363.327
364.313
365.28
366.22
367.132
368.011
368.85
369.641
370.381
371.06
371.671
372.206
372.655
373.01
373.261
373.398
373.404
373.275
373.009
372.599
372.035
371.307
370.406
369.324
368.052
366.586
364.92
363.048
360.966
358.669
356.153
353.419
350.465
347.297
343.92
340.344
336.587
332.664
328.595
324.399
320.092
315.701
311.252
306.795
302.403
298.156
294.169
290.566
287.539
285.389
301.21
300.267
300.631
301.904
303.79
306.099
308.679
311.43
314.261
317.116
319.96
322.767
325.521
328.213
330.831
333.371
335.825
338.186
340.456
342.629
344.713
346.706
348.611
350.433
352.175
353.842
355.439
356.968
358.433
359.842
361.194
362.501
363.762
364.982
366.166
367.32
368.447
369.55
370.632
371.697
372.747
373.783
374.81
375.826
376.829
377.827
378.812
379.785
380.748
381.694
382.624
383.531
384.417
385.272
386.094
386.876
387.614
388.302
388.929
389.492
389.981
390.386
390.7
390.913
391.019
390.996
390.846
390.565
390.143
389.572
388.842
387.944
386.867
385.608
384.156
382.505
380.652
378.589
376.312
373.814
371.094
368.152
364.988
361.607
358.021
354.243
350.291
346.181
341.933
337.565
333.1
328.569
324.021
319.531
315.184
311.099
307.405
304.305
302.105
318.006
317.077
317.491
318.842
320.826
323.244
325.942
328.815
331.77
334.749
337.711
340.633
343.494
346.287
348.998
351.621
354.151
356.577
358.902
361.121
363.242
365.263
367.187
369.02
370.768
372.431
374.018
375.531
376.978
378.361
379.685
380.955
382.176
383.355
384.495
385.6
386.675
387.725
388.75
389.757
390.749
391.724
392.687
393.638
394.577
395.507
396.425
397.332
398.226
399.104
399.966
400.807
401.625
402.415
403.174
403.894
404.571
405.199
405.773
406.283
406.723
407.085
407.36
407.539
407.615
407.571
407.406
407.117
406.696
406.132
405.414
404.537
403.488
402.261
400.848
399.242
397.437
395.426
393.201
390.756
388.091
385.2
382.085
378.747
375.197
371.446
367.511
363.409
359.159
354.775
350.284
345.717
341.122
336.578
332.171
328.025
324.273
321.125
318.899
334.758
333.851
334.312
335.73
337.797
340.303
343.097
346.067
349.118
352.19
355.241
358.246
361.184
364.044
366.816
369.491
372.061
374.521
376.869
379.103
381.228
383.244
385.158
386.974
388.696
390.329
391.881
393.352
394.752
396.084
397.356
398.568
399.729
400.845
401.921
402.957
403.963
404.94
405.896
406.828
407.743
408.641
409.528
410.399
411.261
412.111
412.949
413.778
414.593
415.393
416.179
416.944
417.686
418.402
419.089
419.74
420.353
420.919
421.433
421.888
422.277
422.596
422.833
422.98
423.029
422.968
422.798
422.51
422.098
421.553
420.865
420.023
419.02
417.849
416.5
414.963
413.234
411.307
409.171
406.818
404.245
401.449
398.426
395.175
391.708
388.033
384.166
380.12
375.917
371.57
367.103
362.547
357.954
353.402
348.977
344.81
341.036
337.87
335.638
351.322
350.449
350.954
352.427
354.556
357.129
359.989
363.026
366.141
369.276
372.382
375.437
378.417
381.31
384.107
386.799
389.377
391.835
394.171
396.388
398.483
400.468
402.341
404.107
405.777
407.355
408.844
410.25
411.58
412.839
414.035
415.17
416.251
417.286
418.275
419.229
420.148
421.038
421.905
422.747
423.572
424.38
425.177
425.958
426.729
427.49
428.239
428.977
429.703
430.416
431.115
431.795
432.454
433.091
433.7
434.277
434.819
435.317
435.77
436.167
436.507
436.778
436.977
437.095
437.123
437.051
436.876
436.599
436.206
435.69
435.045
434.255
433.318
432.222
430.958
429.519
427.896
426.08
424.066
421.841
419.401
416.737
413.848
410.734
407.397
403.846
400.097
396.16
392.055
387.796
383.404
378.912
374.369
369.855
365.462
361.312
357.552
354.4
352.182
367.56
366.728
367.271
368.784
370.954
373.566
376.466
379.536
382.681
385.841
388.968
392.034
395.02
397.912
400.7
403.373
405.922