0.44815628 	0 	0 	0 	0 	0 	0
0.44909187 	6.3385975e-08 	5.4007024e-12 	6.7103752e-28 	6.3343365e-08 	9.4108698e-28 	6.336467e-08
0.45009717 	5.9740849e-08 	3.9797653e-11 	-1.0376817e-26 	5.9424183e-08 	-1.6266329e-26 	5.958252e-08
0.45117744 	2.2714625e-07 	3.5041309e-10 	-2.9550873e-27 	2.24339e-07 	4.0180064e-26 	2.2574262e-07
0.45233828 	6.9864387e-07 	1.9780962e-09 	1.3159463e-24 	6.8268446e-07 	1.4509396e-24 	6.9066417e-07
0.45358568 	1.7446105e-06 	8.1273332e-09 	-5.1605979e-24 	1.6785455e-06 	-7.1772323e-24 	1.7115782e-06
0.4549261 	3.7831908e-06 	2.6846035e-08 	-9.8734908e-24 	3.5632301e-06 	-9.9524651e-24 	3.6732111e-06
0.45636646 	7.4379986e-06 	7.579117e-08 	2.6806465e-23 	6.8117969e-06 	3.8769435e-23 	7.1249e-06
0.45791423 	1.3620414e-05 	1.9001273e-07 	2.8326228e-23 	1.2036595e-05 	3.2589031e-23 	1.2828511e-05
0.4595774 	2.3634968e-05 	4.3346944e-07 	-1.8634914e-22 	1.9988069e-05 	-2.4197775e-22 	2.1811534e-05
0.46136458 	3.9296435e-05 	9.1370107e-07 	1.3291426e-22 	3.153281e-05 	3.5758805e-22 	3.5414659e-05
0.46328499 	6.3018775e-05 	1.7955641e-06 	1.7629608e-21 	4.7599077e-05 	2.0123185e-21 	5.5309006e-05
0.46534857 	9.7791626e-05 	3.303489e-06 	-1.1664736e-21 	6.9091044e-05 	-2.5577911e-21 	8.3441498e-05
0.46756597 	0.00014691014 	5.6938919e-06 	-4.3072441e-21 	9.6795312e-05 	-4.416077e-21 	0.00012185304
0.46994866 	0.00021333479 	9.1787222e-06 	3.1645127e-21 	0.00013133294 	4.1207843e-21 	0.00017233443
0.47250895 	0.00029871306 	1.3801616e-05 	-1.5859908e-21 	0.00017320776 	-2.2446259e-21 	0.0002359614
0.47526006 	0.00040241891 	1.9312515e-05 	-4.1531789e-21 	0.00022294833 	-9.2084917e-22 	0.0003126853
0.47821618 	0.00052119956 	2.5119389e-05 	1.4122348e-20 	0.000281264 	1.6848286e-20 	0.00040123456
0.4813926 	0.00064981816 	3.0373092e-05 	4.6257192e-21 	0.00034907602 	-2.6770148e-21 	0.00049945148
0.48480569 	0.00078244447 	3.4155738e-05 	-5.289991e-21 	0.00042736297 	-4.1079088e-21 	0.00060491022
0.48847307 	0.00091405322 	3.5674735e-05 	5.3462173e-21 	0.00051688962 	-1.4009691e-20 	0.00071548033
0.49241365 	0.0010411992 	3.4374612e-05 	-3.6108245e-20 	0.00061798275 	-2.8764497e-20 	0.00082960232
0.49664777 	0.0011620772 	2.9948858e-05 	-9.8506545e-21 	0.00073047292 	1.1960022e-20 	0.00094628855
0.50119723 	0.0012761567 	2.2285958e-05 	-4.5604471e-21 	0.00085380175 	9.955105e-21 	0.0010649943
0.5060855 	0.0013836955 	1.1392294e-05 	1.1313153e-20 	0.00098722907 	5.1145827e-20 	0.0011854787
0.51133774 	0.0014853294 	-2.6753206e-06 	4.6436786e-20 	0.0011300424 	-9.7184612e-21 	0.0013077035
0.51698101 	0.0015817981 	-1.9855171e-05 	-7.4933867e-20 	0.0012817038 	-3.5276511e-20 	0.0014317695
0.52304435 	0.0016738016 	-4.0101619e-05 	4.7095452e-20 	0.0014419176 	1.0811284e-19 	0.001557879
0.52955895 	0.0017619414 	-6.3389904e-05 	1.292159e-19 	0.0016106399 	-5.0820857e-20 	0.0016863107
0.5365583 	0.0018467058 	-8.9711316e-05 	-1.1247553e-19 	0.001788061 	-1.3904195e-19 	0.0018174037
0.54407839 	0.0019284757 	-0.00011906483 	-8.4973352e-20 	0.0019745748 	6.4495808e-20 	0.0019515451
0.55215783 	0.0020075387 	-0.00015144756 	6.9252528e-20 	0.0021707492 	8.3426769e-20 	0.0020891627
0.56083809 	0.0020841019 	-0.00018684429 	4.1903511e-20 	0.0023773061 	-4.4302057e-20 	0.0022307207
0.57016371 	0.0021582999 	-0.00022522181 	-5.7805224e-20 	0.0025951087 	-4.4849761e-20 	0.0023767172
0.58018248 	0.0022302054 	-0.00026652839 	-2.9983398e-20 	0.0028251516 	6.421105e-20 	0.0025276851
0.59094573 	0.0022998405 	-0.00031070593 	8.0042429e-20 	0.0030685596 	6.3757523e-21 	0.0026841966
0.60250854 	0.0023671988 	-0.00035772903 	-1.2335424e-20 	0.0033265974 	-2.8199181e-20 	0.0028468769
0.61493003 	0.0024323128 	-0.0004076926 	5.1091147e-22 	0.0036007005 	4.3372008e-21 	0.0030164384
0.62827366 	0.0024954798 	-0.00046097383 	4.4750787e-20 	0.0038925559 	1.4280202e-20 	0.0031937681
0.64260754 	0.0025577404 	-0.00051878191 	2.5100352e-20 	0.0042039591 	-5.3513491e-20 	0.0033801412
0.65800475 	0.00262262 	-0.0005844484 	-5.8522895e-20 	0.0045359589 	-5.6512891e-20 	0.0035777573
0.6745437 	0.0026976969 	-0.00066892455 	-4.468388e-20 	0.0048858898 	5.8904773e-20 	0.0037909577
0.69230851 	0.0028001716 	-0.00080265091 	3.1329329e-20 	0.00525222 	5.9815067e-20 	0.0040291016
0.71138943 	0.002966925 	-0.0010421892 	3.9031922e-20 	0.005645768 	-1.2596715e-20 	0.0043121813
0.73188325 	0.0032620299 	-0.0014253459 	1.2294846e-20 	0.0061012899 	-6.7099708e-20 	0.0046863315
0.7538938 	0.003824185 	-0.0019126411 	-4.4395426e-20 	0.0067025606 	2.8877229e-21 	0.0052614082
0.77753238 	0.0047462053 	-0.0024972807 	2.2301415e-21 	0.0076290932 	2.7029054e-20 	0.0061836536
0.80291836 	0.0059581848 	-0.0032436173 	4.7930797e-21 	0.0089333874 	-1.2755287e-20 	0.007446403
0.8301797 	0.007214659 	-0.0040945762 	-1.8975048e-20 	0.010246164 	5.5437785e-22 	0.0087312689
0.85945355 	0.008238238 	-0.0048449271 	-4.2917518e-22 	0.011120208 	-2.9079933e-21 	0.0096772224
0.8908869 	0.0090441283 	-0.005191449 	3.2250824e-20 	0.011488505 	-1.0568504e-21 	0.010264103
0.92463724 	0.0098841178 	-0.0051817663 	1.3498577e-20 	0.011724845 	1.1659317e-20 	0.010803647
0.96087331 	0.011128228 	-0.0052898927 	-9.733407e-22 	0.012431081 	7.8511595e-21 	0.011779022
0.99977583 	0.013124882 	-0.0057987964 	-1.247171e-19 	0.01399333 	5.2274762e-21 	0.013558681
1.0415383 	0.015742444 	-0.0066456443 	-1.0145042e-20 	0.016202152 	-2.0401777e-20 	0.015972089
1.0863681 	0.018387516 	-0.0075909535 	2.2131761e-19 	0.018419838 	-7.2771188e-21 	0.018402523
1.1344869 	0.020528714 	-0.0084697032 	-3.3139647e-20 	0.020151344 	2.3134552e-20 	0.02033833
1.1861322 	0.021915524 	-0.0091506444 	-4.1656518e-19 	0.021209425 	5.9043673e-21 	0.02156238
1.241558 	0.022559867 	-0.0094938712 	-2.8480025e-20 	0.02163106 	-1.8392414e-20 	0.022096956
1.3010361 	0.022670762 	-0.0094854569 	1.2516863e-19 	0.021595659 	4.7741857e-21 	0.022134536
1.3648571 	0.02241133 	-0.0092162582 	-3.8720313e-19 	0.021223864 	1.2715449e-20 	0.021818091
1.4333318 	0.021796267 	-0.0087652531 	-2.3227297e-19 	0.020514766 	-2.0643879e-20 	0.021155193
1.5067924 	0.020874436 	-0.0081972515 	7.841054e-19 	0.01952115 	-1.8776017e-20 	0.020197194
1.585594 	0.019718683 	-0.0075461466 	4.4513544e-19 	0.018319355 	9.9934159e-21 	0.01901927
1.670116 	0.018384244 	-0.0068098786 	1.531836e-19 	0.016956612 	1.7237296e-20 	0.017671092
1.7201551 	0.017589488 	-0.0063749372 	-2.7465042e-19 	0.016165522 	1.1314649e-20 	0.016877057
1.7607692 	0.016942882 	-0.006021043 	-6.2954644e-19 	0.015524018 	6.5641296e-21 	0.016232083
1.851244 	0.015496313 	-0.0052881879 	-3.266276e-19 	0.014189155 	-2.0579938e-20 	0.014841218
1.9352734 	0.014144735 	-0.0046631902 	6.2990718e-19 	0.013055672 	-2.3703729e-21 	0.013600866
2.0133292 	0.012938927 	-0.0041032226 	-1.084204e-19 	0.012096689 	7.017332e-21 	0.012518239
2.0858467 	0.011880311 	-0.0035834254 	1.5960762e-19 	0.011262475 	1.3570524e-21 	0.011571062
2.153228 	0.01094846 	-0.0031030496 	-1.0827706e-19 	0.010526796 	-5.4826329e-22 	0.010737468
2.2158443 	0.010125311 	-0.0026594851 	1.1726681e-19 	0.009871919 	-1.011477e-20 	0.0099985194
2.2740391 	0.0093954033 	-0.0022504392 	4.2702939e-19 	0.0092822817 	6.395111e-21 	0.0093387894
2.3281301 	0.0087460717 	-0.0018730026 	-9.7332288e-20 	0.0087461445 	9.9157032e-21 	0.0087460727
2.3784113 	0.0081670111 	-0.0015244309 	-6.4052243e-20 	0.0082552536 	-5.9070676e-21 	0.0082110845
2.4251549 	0.0076501209 	-0.0012029671 	1.3333531e-19 	0.0078042744 	-6.5818216e-21 	0.0077271841
2.4686132 	0.0071890487 	-0.00090473366 	2.1401438e-19 	0.0073894943 	1.2320768e-20 	0.0072892794
2.5090199 	0.0067779889 	-0.00062581515 	-2.7566881e-19 	0.0070078835 	5.6741781e-21 	0.0068929279
2.5465917 	0.0064117831 	-0.00036493462 	-7.1368477e-20 	0.0066575869 	-1.0789737e-20 	0.006534678
2.5815297 	0.0060866075 	-0.00012072862 	1.0049853e-19 	0.0063378837 	-7.4231381e-22 	0.0062122475
2.6140201 	0.0057996373 	0.00010823757 	-1.7080528e-20 	0.0060485427 	5.9757879e-21 	0.0059240944
2.6442361 	0.0055486359 	0.00032290587 	-8.4429607e-20 	0.0057896084 	-3.219709e-21 	0.0056691248
2.672338 	0.0053318432 	0.00052393501 	5.5234344e-20 	0.0055612913 	-5.7442519e-21 	0.0054465686
2.698475 	0.0051478808 	0.00071176712 	7.8581369e-20 	0.0053638229 	7.3682217e-21 	0.0052558521
2.7227854 	0.0049955998 	0.00088671813 	-1.0556972e-19 	0.0051973089 	5.4062053e-21 	0.0050964528
2.7453976 	0.0048738983 	0.0010490555 	-6.8155388e-20 	0.0050615687 	-1.1484841e-20 	0.00496773
2.766431 	0.0047815285 	0.0011990537 	1.2559641e-19 	0.0049559693 	-2.5936892e-21 	0.0048687462
2.7859964 	0.0047169301 	0.0013370575 	1.6318204e-20 	0.0048792773 	1.1829188e-20 	0.0047981011
2.8041967 	0.0046780586 	0.0014634865 	-9.7826417e-20 	0.0048295515 	-1.8279523e-21 	0.0047538027
2.8211278 	0.0046624347 	0.0015789003 	2.6851878e-20 	0.0048042635 	-1.7828659e-21 	0.0047333451
2.8368784 	0.0046664117 	0.0016837059 	-4.1236499e-20 	0.0047995885 	6.8758615e-21 	0.0047329947
2.8515312 	0.0046867844 	0.0017784707 	-7.6606024e-20 	0.0048120779 	-7.0132649e-21 	0.004749429
2.8651631 	0.0047213212 	0.0018641484 	4.9832928e-20 	0.0048392256 	-8.9395332e-21 	0.0047802724
2.8778453 	0.0047665084 	0.0019414418 	5.5812013e-20 	0.0048772255 	1.5869395e-21 	0.0048218656
2.8896443 	0.0048187923 	0.0020110736 	2.504677e-20 	0.0049222779 	1.9843798e-21 	0.004870535
2.9006217 	0.004875606 	0.0020739838 	2.3148911e-20 	0.0049716211 	5.096131e-21 	0.0049236137
2.910835 	0.0049349166 	0.0021311075 	-3.1267449e-20 	0.0050230879 	1.2025563e-21 	0.0049790028
2.9203374 	0.0049952278 	0.0021833877 	2.2433247e-21 	0.0050751187 	-4.9316258e-21 	0.0050351747
2.9291785 	0.0050555247 	0.0022317596 	2.2497822e-20 	0.0051267027 	3.335937e-21 	0.0050911156
2.9374045 	0.0051151751 	0.0022770713 	-2.5659675e-20 	0.0051772777 	4.2873938e-21 	0.0051462279
2.9450582 	0.0051738093 	0.0023200223 	-2.1078851e-20 	0.0052266029 	-1.8493787e-21 	0.0052002072
2.9521795 	0.0052312007 	0.0023611303 	-6.843139e-21 	0.0052746224 	-5.0025997e-21 	0.0052529127
2.9588056 	0.0052871432 	0.0024006931 	2.1418402e-20 	0.0053213274 	-2.3675211e-21 	0.0053042366
2.9649709 	0.0053413351 	0.0024387409 	1.4083918e-20 	0.0053666289 	3.9041433e-21 	0.0053539825
2.9707075 	0.00539328 	0.002475008 	-9.3559196e-21 	0.0054102497 	2.471955e-21 	0.005401757
2.9760453 	0.0054422061 	0.0025089179 	-6.5078165e-21 	0.0054515783 	-6.2537954e-22 	0.0054468816
2.981012 	0.0054870997 	0.0025426206 	-3.4541577e-21 	0.0054895546 	-6.3012859e-22 	0.0054883393
2.9856335 	0.0055262541 	0.0025682169 	-1.5646035e-21 	0.0055223257 	-1.3081745e-21 	0.0055243114
2.9899337 	0.0055568311 	0.0025816795 	4.2812918e-21 	0.0055471943 	-8.6520474e-22 	0.0055520116
2.9939351 	0.0055745061 	0.0025888168 	3.2748949e-21 	0.0055602574 	-6.0499622e-23 	0.0055673702
2.9976584 	0.0055736562 	0.0025876736 	3.1451003e-21 	0.0055561895 	1.3000977e-21 	0.0055649172
3.001123 	0.0055474803 	0.0025750857 	-2.5741094e-21 	0.0055281984 	8.9672847e-22 	0.005537837
3.0043468 	0.0054878311 	0.0025472419 	-1.531083e-21 	0.0054679802 	-6.8227074e-22 	0.0054779043
3.0073466 	0.0053861062 	0.0025001312 	5.2840309e-22 	0.0053667208 	4.5418536e-22 	0.0053764127
3.0101381 	0.0052332545 	0.0024295693 	-2.0751884e-21 	0.0052151427 	-2.7735097e-22 	0.0052241979
3.0127355 	0.0050194823 	0.0023305847 	7.2549467e-22 	0.0050032329 	-5.3432131e-22 	0.005011357
3.0151526 	0.0047350328 	0.0021986081 	2.1425475e-22 	0.0047210224 	7.885548e-22 	0.0047280269
3.0174017 	0.0043714576 	0.0020300373 	-1.1402719e-21 	0.0043598626 	-4.0521922e-22 	0.0043656591
3.0194946 	0.0039236973 	0.0018223798 	6.2779286e-22 	0.0039145103 	-6.7197546e-22 	0.0039191059
3.0214421 	0.0033931052 	0.0015761782 	4.6275097e-22 	0.0033861692 	4.3155419e-22 	0.0033896386
3.0232543 	0.0027889366 	0.0012779391 	-1.9015627e-22 	0.0027840704 	3.4832221e-22 	0.0027865009
3.0249407 	0.0021384596 	0.00093255111 	-1.5567599e-22 	0.0021354163 	-1.0189163e-22 	0.0021369378
3.0265099 	0.0014985641 	0.00059255857 	8.3568822e-24 	0.0014969134 	-1.0510204e-22 	0.0014977403
3.0279701 	0.00094221598 	0.00031673512 	2.0259221e-23 	0.00094145856 	5.0512945e-24 	0.00094183763
3.029329 	0.00052375239 	0.00013743751 	-1.1190731e-24 	0.00052346913 	7.9089154e-24 	0.00052361075
3.0305934 	0.00025344374 	4.6905853e-05 	2.0336875e-25 	0.00025336114 	1.2489036e-24 	0.00025340241
3.0317701 	0.00010371089 	1.208195e-05 	-2.9773785e-25 	0.0001036932 	3.9667072e-25 	0.00010370204
3.032865 	3.3796914e-05 	2.1712491e-06 	-1.9433477e-26 	3.3794397e-05 	-3.2941684e-26 	3.3795655e-05
3.0338839 	8.2373163e-06 	2.3610182e-07 	-1.8974499e-27 	8.2371197e-06 	-1.1251993e-26 	8.2372173e-06
3.034832 	5.13202e-06 	2.0921872e-08 	1.3232252e-28 	5.1320116e-06 	-2.1069179e-28 	5.1320157e-06
3.0357143 	0 	0 	0 	0 	0 	0
