-1.5969174e-09 	0 	0 	0 	0 	0 	0
0.0010637143 	2.3284121e-07 	2.8534045e-10 	2.7754575e-29 	2.3283499e-07 	5.017595e-29 	2.3283809e-07
0.0022067917 	5.725174e-07 	4.3043147e-09 	-3.3357811e-28 	5.723498e-07 	5.8068201e-27 	5.7243345e-07
0.0034351516 	2.4388376e-06 	4.1412697e-08 	-3.5189461e-27 	2.4367021e-06 	-1.9242129e-26 	2.4377699e-06
0.0047551568 	7.5580841e-06 	2.4139091e-07 	1.5851097e-26 	7.5427114e-06 	-2.4445408e-25 	7.5503992e-06
0.0061736447 	1.883287e-05 	1.0144854e-06 	1.4478858e-26 	1.875611e-05 	-6.2870932e-26 	1.8794493e-05
0.0076979629 	4.0568958e-05 	3.3939817e-06 	-3.667907e-26 	4.0271518e-05 	3.9504532e-24 	4.0420235e-05
0.0093360072 	7.8761665e-05 	9.5446217e-06 	1.1768995e-25 	7.7808514e-05 	2.1914216e-24 	7.8285071e-05
0.011096262 	0.00014106143 	2.3209125e-05 	-1.2047088e-24 	0.00013844226 	-1.5605331e-23 	0.00013975186
0.012987846 	0.00023586121 	4.9416045e-05 	-5.6848174e-25 	0.00022956451 	1.3808466e-23 	0.00023271319
0.015020557 	0.000370068 	9.2578706e-05 	2.6044727e-24 	0.00035667226 	-2.5031792e-23 	0.00036337149
0.017204925 	0.00054619218 	0.00015323996 	-7.5794969e-24 	0.00052074391 	1.3737237e-23 	0.00053347155
0.019552263 	0.00076086359 	0.00022589722 	2.2782357e-23 	0.00071721539 	2.2255914e-22 	0.00073904611
0.022074731 	0.0010063643 	0.00030042692 	3.0856697e-23 	0.00093781655 	-1.6049366e-22 	0.00097210032
0.024785394 	0.0012737211 	0.00036623023 	-1.1356599e-24 	0.0011736237 	-3.422926e-22 	0.0012236851
0.027698295 	0.0015554239 	0.00041589636 	-1.1194402e-22 	0.001417508 	-2.0164923e-23 	0.0014864814
0.03082852 	0.0018465557 	0.00044631298 	2.7854273e-23 	0.0016650097 	1.3632954e-22 	0.0017558013
0.034192285 	0.0021443049 	0.00045766211 	-6.1965772e-23 	0.0019137407 	-8.1381518e-24 	0.0020290453
0.037807013 	0.0024471917 	0.0004518742 	6.5741399e-23 	0.0021625977 	-1.9075862e-22 	0.0023049222
0.041691429 	0.0027544873 	0.00043141807 	-2.3097171e-22 	0.0024112089 	3.9947796e-22 	0.002582882
0.045865651 	0.0030658712 	0.00039862546 	4.9446868e-22 	0.0026596244 	5.4812138e-22 	0.0028627887
0.050351304 	0.0033810873 	0.00035539976 	2.936028e-22 	0.0029080264 	-8.5962988e-22 	0.0031446053
0.055171622 	0.0036998995 	0.00030317767 	-7.0510993e-22 	0.0031567033 	2.4465989e-22 	0.0034283587
0.060351572 	0.0040222649 	0.00024299842 	9.1436092e-22 	0.0034062026 	4.6329071e-22 	0.0037143009
0.065917988 	0.0043482185 	0.00017556336 	-5.1398984e-22 	0.0036572327 	-1.5082007e-21 	0.0040028026
0.071899702 	0.0046777395 	0.0001013017 	-1.7043371e-21 	0.0039105505 	4.600835e-22 	0.0042942319
0.078327699 	0.0050107646 	2.0430539e-05 	2.2384247e-22 	0.0041669786 	1.4821848e-21 	0.0045889688
0.085235274 	0.0053472244 	-6.6999648e-05 	1.1799235e-21 	0.0044274394 	-2.3171086e-22 	0.0048874396
0.092658209 	0.0056869893 	-0.00016107979 	5.0405404e-22 	0.0046929158 	-7.9068305e-22 	0.0051900704
0.10063495 	0.0060298181 	-0.00026202218 	-7.3507805e-22 	0.0049644175 	-3.2493906e-22 	0.0054972461
0.10920682 	0.0063753677 	-0.00037014794 	-9.8867793e-22 	0.0052429876 	4.4687864e-22 	0.0058093166
0.11841822 	0.0067231926 	-0.00048588203 	7.7534494e-22 	0.0055297103 	3.5115449e-22 	0.0061266011
0.12831687 	0.0070727365 	-0.00060974794 	4.8800988e-22 	0.0058257241 	-2.2176402e-22 	0.0064493903
0.13895403 	0.0074233317 	-0.00074236312 	-3.3588999e-22 	0.0061322337 	2.873852e-22 	0.0067779527
0.1503848 	0.0077741997 	-0.00088443241 	1.3738563e-21 	0.0064505245 	-5.9381898e-22 	0.0071125411
0.1626684 	0.0081244482 	-0.0010367413 	-6.0714227e-22 	0.0067819789 	-6.8844845e-22 	0.0074533994
0.17586845 	0.0084730656 	-0.0012001463 	-8.8150856e-22 	0.0071280957 	1.6047331e-21 	0.0078007709
0.19005333 	0.0088189265 	-0.0013755813 	2.6587385e-21 	0.0074904978 	1.2346865e-23 	0.0081549041
0.20529651 	0.009160794 	-0.0015640547 	-5.8951814e-22 	0.0078709436 	-1.948821e-21 	0.008516058
0.22167695 	0.0094973134 	-0.0017666369 	-2.9044545e-21 	0.0082713531 	2.7148265e-22 	0.0088845126
0.23927951 	0.0098270194 	-0.0019844546 	-1.1826559e-21 	0.008693844 	1.6581573e-21 	0.0092605915
0.25819535 	0.010148354 	-0.0022186784 	6.53877e-22 	0.0091407859 	9.0699998e-22 	0.0096446966
0.27852246 	0.01045971 	-0.0024705242 	2.4929383e-21 	0.0096148743 	1.4585266e-22 	0.010037367
0.30036613 	0.010759521 	-0.0027412678 	2.4006383e-21 	0.010119234 	-5.4507259e-22 	0.010439373
0.32383951 	0.011046417 	-0.0030322829 	3.102277e-21 	0.01065754 	-2.3596902e-21 	0.010851864
0.34906419 	0.011319546 	-0.0033450821 	-1.1239471e-21 	0.011234172 	-1.9894855e-21 	0.011276602
0.37617083 	0.011579073 	-0.0036819738 	-4.2823831e-21 	0.011854479 	3.3446138e-21 	0.011716309
0.40529983 	0.011826948 	-0.004045836 	1.7087213e-21 	0.012525077 	3.0377332e-21 	0.012175228
0.43660209 	0.01206881 	-0.0044406525 	4.7615928e-21 	0.013254191 	-2.7300349e-21 	0.012660131
0.47023974 	0.012317394 	-0.0048737543 	-7.3569647e-22 	0.014052414 	-3.7263867e-21 	0.013181815
0.50638702 	0.012597981 	-0.0053568742 	-2.4157229e-21 	0.014922317 	-6.1238913e-22 	0.013757307
0.54523117 	0.0129578 	-0.0059629407 	2.6286495e-21 	0.015875157 	1.9213111e-21 	0.014413529
0.5869734 	0.013512281 	-0.0066784274 	2.6317043e-21 	0.016884682 	-4.6306218e-22 	0.015195042
0.63182992 	0.014437131 	-0.0073180855 	6.7867496e-22 	0.017895461 	-2.4146321e-22 	0.016166376
0.6800331 	0.015740308 	-0.0079500502 	2.7324264e-21 	0.018934669 	2.7885908e-21 	0.017336103
0.73183261 	0.017068041 	-0.0087386156 	-4.4526372e-21 	0.019875232 	1.8124506e-21 	0.018461269
0.78749677 	0.01788942 	-0.0095846375 	-9.3220905e-21 	0.020333117 	-3.3873896e-22 	0.019098815
0.8473139 	0.018001581 	-0.010285024 	-6.7830016e-21 	0.020078282 	-1.8453015e-21 	0.019040179
0.91159387 	0.017724494 	-0.010151835 	-5.6177672e-22 	0.019265843 	-1.7196706e-21 	0.018491449
0.98066963 	0.01760513 	-0.0093562777 	-2.6930915e-21 	0.018616353 	4.7590975e-22 	0.018088258
1.054899 	0.017997463 	-0.0087718609 	-1.3948712e-20 	0.018740806 	1.2129852e-21 	0.01834741
1.1346664 	0.018736587 	-0.0084012432 	-2.0701583e-20 	0.019341754 	1.3019047e-21 	0.01902241
1.166856 	0.018978455 	-0.0082936562 	-3.2184725e-20 	0.019518494 	1.8810686e-21 	0.019231369
1.2204494 	0.019383606 	-0.0081185262 	-4.7832038e-20 	0.01981606 	2.7978382e-21 	0.019583554
1.3126654 	0.01967116 	-0.0078649192 	-8.9212023e-20 	0.019849433 	1.7039353e-21 	0.019745831
1.4117494 	0.019506063 	-0.0075720267 	-5.0006284e-20 	0.019358023 	-2.7864067e-21 	0.01941947
1.5182117 	0.018838408 	-0.0071729831 	5.62519e-20 	0.018352289 	-5.0222123e-21 	0.018584851
1.6246594 	0.017789308 	-0.0066961303 	1.0555783e-19 	0.017032591 	-2.2163135e-21 	0.017403439
1.7237033 	0.016617351 	-0.0062106363 	6.8106376e-20 	0.015661272 	5.6766584e-22 	0.016133446
1.8158592 	0.015459823 	-0.0057191444 	4.1310565e-20 	0.014353334 	-2.6819387e-22 	0.014901767
1.9016069 	0.014364391 	-0.0052169091 	6.0368592e-20 	0.013156284 	-1.8163927e-21 	0.013756947
1.9813925 	0.013349919 	-0.0047138079 	8.3544621e-20 	0.012084595 	1.1828527e-21 	0.012714853
2.0556311 	0.012420895 	-0.0042191341 	-5.224722e-20 	0.011134019 	3.3767276e-21 	0.011775791
2.1247088 	0.011574295 	-0.003739427 	-3.9883034e-20 	0.010293911 	-1.7038909e-21 	0.01093299
2.1889848 	0.01080402 	-0.0032790787 	4.4104612e-20 	0.0095517526 	-1.4968078e-21 	0.010177174
2.2487932 	0.010103092 	-0.0028407785 	2.7274293e-21 	0.0088951148 	1.4803705e-21 	0.0094986707
2.3044449 	0.0094647291 	-0.0024258495 	-1.3143902e-20 	0.0083125769 	8.6582013e-22 	0.0088884267
2.356229 	0.0088829486 	-0.0020345541 	-1.7971332e-20 	0.0077942821 	-9.7199841e-22 	0.0083385317
2.4044145 	0.0083527351 	-0.0016668187 	3.2960137e-20 	0.0073321568 	-1.7700113e-21 	0.0078424236
2.4492518 	0.0078695454 	-0.0013219239 	3.6916024e-20 	0.0069197489 	1.1022243e-21 	0.007394665
2.4909736 	0.0074293115 	-0.00099870983 	-1.875195e-20 	0.0065516552 	1.0132774e-21 	0.0069905349
2.5297965 	0.0070288595 	-0.00069644752 	3.3679499e-21 	0.0062231086 	-2.4362627e-21 	0.0066260428
2.5659222 	0.0066657774 	-0.00041432868 	5.4937753e-20 	0.0059302622 	1.7604583e-22 	0.0062980707
2.5828761 	0.0065005618 	-0.00028175071 	2.2799712e-20 	0.0057991332 	1.8598716e-21 	0.0061498923
2.5995508 	0.0063380928 	-0.00015132498 	-9.1940278e-21 	0.005670134 	3.5064807e-21 	0.0060041488
2.6308527 	0.0060444542 	9.3303628e-05 	-4.5968216e-20 	0.0054405767 	-5.9414611e-22 	0.0057425365
2.659977 	0.0057839509 	0.00032014237 	1.0176322e-20 	0.0052400309 	-3.0093568e-21 	0.0055119974
2.6870756 	0.0055557662 	0.00052986839 	3.3164019e-20 	0.0050672386 	8.4160039e-23 	0.0053114961
2.7122895 	0.0053592065 	0.00072315995 	5.5551215e-21 	0.0049212306 	1.3468671e-21 	0.0051402019
2.7357501 	0.0051935419 	0.00090072719 	-2.810207e-21 	0.0048011546 	3.2080196e-22 	0.0049973217
2.7575795 	0.0050578401 	0.0010633219 	-2.2172333e-21 	0.004706111 	3.7946436e-22 	0.0048819412
2.7778912 	0.0049509201 	0.0012117874 	-8.4129629e-21 	0.0046350684 	-3.7903768e-22 	0.0047929536
2.7967909 	0.0048712875 	0.0013470811 	4.7219052e-21 	0.0045867819 	-6.8627865e-22 	0.0047289898
2.8143769 	0.0048170923 	0.0014702663 	3.5234794e-21 	0.0045597203 	-3.4335367e-22 	0.0046883593
2.8307405 	0.0047861511 	0.0015825101 	8.2473205e-21 	0.0045520634 	-1.6261925e-22 	0.0046690594
2.8459669 	0.004775994 	0.0016850417 	5.0949651e-21 	0.0045617338 	8.6203637e-22 	0.0046688157
2.8601351 	0.0047841654 	0.0017791328 	-4.3825984e-21 	0.0045866672 	1.4283297e-22 	0.0046853689
2.8733187 	0.0048083597 	0.0018661091 	1.9492051e-21 	0.0046249282 	-5.7942459e-23 	0.0047165999
2.8855863 	0.0048463093 	0.0019472597 	-2.6137e-21 	0.0046745983 	1.2143918e-21 	0.0047604129
2.8970015 	0.004895933 	0.0020237405 	-1.1194039e-20 	0.0047339505 	-5.5322835e-22 	0.0048149028
2.9076235 	0.0049554671 	0.0020965694 	3.000998e-21 	0.0048015738 	-1.9872552e-21 	0.0048784842
2.9175076 	0.0050233522 	0.0021665545 	1.036909e-20 	0.0048762439 	9.4335628e-22 	0.0049497653
2.9267051 	0.0050982509 	0.0022342698 	-5.5495955e-21 	0.004956945 	1.6238756e-21 	0.0050275684
2.9352636 	0.0051790438 	0.0023000854 	-6.3889103e-21 	0.0050428627 	-1.1956383e-21 	0.0051109271
2.9432275 	0.0052646238 	0.0023640216 	5.0911997e-21 	0.005133182 	-5.3427269e-22 	0.0051988803
2.9506383 	0.0053538241 	0.0024257633 	-3.7334689e-22 	0.0052270363 	1.0214815e-21 	0.0052903897
2.9575343 	0.0054454399 	0.0024872075 	-3.5563169e-21 	0.0053232694 	-5.4265928e-22 	0.0053843274
2.9639513 	0.0055380776 	0.0025438542 	3.0485405e-21 	0.0054204984 	-6.4752802e-22 	0.0054793051
2.9699226 	0.0056300074 	0.0025910636 	1.7650162e-21 	0.0055170124 	8.7857621e-22 	0.0055735064
2.9754792 	0.0057183306 	0.0026332749 	-2.7937738e-21 	0.0056100381 	-7.0105468e-24 	0.0056641557
2.9806499 	0.0057984762 	0.0026718321 	9.6591906e-22 	0.0056954496 	-4.875786e-22 	0.0057469447
2.9854614 	0.0058648385 	0.0027041709 	6.2759675e-22 	0.0057678983 	2.5032786e-22 	0.005816356
2.9899388 	0.0059112125 	0.0027274062 	-4.7130325e-22 	0.00582118 	-1.6090945e-22 	0.0058661867
2.9941053 	0.0059310475 	0.0027384681 	1.0290395e-21 	0.0058486417 	2.4794536e-23 	0.0058898365
2.9979824 	0.0059174717 	0.0027341264 	-2.907843e-22 	0.0058432543 	4.3810245e-22 	0.0058803561
3.0015902 	0.0058631348 	0.0027109248 	-9.0582623e-22 	0.005797477 	-1.5509874e-22 	0.0058303001
3.0049475 	0.0057600705 	0.0026651282 	2.2413291e-22 	0.0057031325 	-2.1768353e-22 	0.0057315965
3.0080717 	0.0055995244 	0.0025926636 	1.145645e-22 	0.0055512456 	7.9484376e-23 	0.0055753807
3.0109789 	0.005371815 	0.0024889627 	-8.3336838e-23 	0.0053319147 	-4.4581946e-23 	0.0053518612
3.0136843 	0.00506649 	0.0023487288 	1.5270776e-22 	0.0050344801 	-1.7746049e-23 	0.0050504828
3.0162017 	0.0046733362 	0.002167345 	-5.2595706e-24 	0.004648532 	8.1842247e-23 	0.0046609333
3.0185444 	0.0041845894 	0.0019415282 	-4.8084165e-23 	0.0041661489 	5.8562534e-23 	0.0041753677
3.0207244 	0.0035984574 	0.001670243 	-8.1725303e-23 	0.0035854424 	-1.3072492e-23 	0.0035919475
3.022753 	0.002921172 	0.0013327468 	-5.3032215e-24 	0.0029127173 	-5.3946582e-23 	0.0029169441
3.0246408 	0.0021843719 	0.00093985556 	1.2892913e-23 	0.0021795389 	-2.0604346e-23 	0.0021819565
3.0263975 	0.001463259 	0.00056170939 	1.0578452e-23 	0.0014609098 	1.1871591e-23 	0.0014620852
3.0280322 	0.00085548492 	0.00026992308 	-2.9009718e-24 	0.00085456116 	6.6629469e-24 	0.00085502321
3.0295534 	0.0004271337 	9.9305027e-05 	-2.9228641e-25 	0.00042685536 	-4.2557464e-25 	0.00042699447
3.030969 	0.00017733958 	2.6676681e-05 	-9.666023e-26 	0.00017727914 	-1.7892258e-25 	0.00017730933
3.0322862 	5.798429e-05 	4.8660095e-06 	4.8022413e-27 	5.7975701e-05 	-5.7753283e-26 	5.7979989e-05
3.0335121 	1.3793485e-05 	5.2301421e-07 	9.8869536e-28 	1.3792822e-05 	3.8235112e-28 	1.3793152e-05
3.0346528 	6.4436715e-06 	3.8070565e-08 	-1.3485855e-30 	6.4436469e-06 	1.7095485e-28 	6.4436592e-06
3.0357143 	0 	0 	0 	0 	0 	0
