0 	0 	0 	0 	0 	0 	0
0.0010637159 	6.1815452e-07 	1.1715232e-09 	1.5369572e-32 	6.181604e-07 	-8.7654604e-31 	6.1815753e-07
0.0022067933 	3.3111778e-06 	2.3878591e-08 	-9.8575329e-31 	3.3114071e-06 	-1.979428e-29 	3.3112929e-06
0.0034351532 	1.4585104e-05 	2.1597452e-07 	2.0706506e-31 	1.4588239e-05 	5.6874334e-28 	1.4586673e-05
0.0047551584 	4.5179121e-05 	1.153008e-06 	1.2401361e-28 	4.5202638e-05 	1.780017e-28 	4.5190891e-05
0.0061736463 	0.00011193972 	4.3647285e-06 	-1.4622898e-28 	0.00011206121 	-1.5180807e-26 	0.00011200057
0.0076979646 	0.00023828286 	1.2828826e-05 	-1.9191598e-27 	0.00023876872 	-9.6787149e-27 	0.00023852624
0.0093360089 	0.00045209532 	3.0409165e-05 	-1.1698867e-27 	0.0004536974 	5.9283397e-26 	0.00045289702
0.011096264 	0.00077718207 	5.8477841e-05 	3.7926802e-27 	0.00078167308 	4.7286948e-26 	0.00077942567
0.012987848 	0.0012180502 	9.0562429e-05 	-1.9071096e-26 	0.0012288885 	1.8690666e-25 	0.0012234592
0.015020559 	0.0017502003 	0.00011232146 	6.564609e-26 	0.0017729323 	-4.7687229e-26 	0.0017615478
0.017204926 	0.0023305421 	0.00011093144 	1.7108767e-27 	0.0023726219 	-3.2182351e-25 	0.0023515669
0.019552264 	0.0029194877 	8.3240145e-05 	8.4118343e-26 	0.0029896778 	5.1080097e-25 	0.0029545833
0.022074732 	0.0034932815 	3.3633803e-05 	-3.9510521e-26 	0.003601047 	-2.562649e-25 	0.00354718
0.024785396 	0.0040424165 	-3.2125955e-05 	1.1047422e-26 	0.0041975392 	-1.3867529e-24 	0.0041200002
0.027698296 	0.0045655089 	-0.00010993643 	-5.6587728e-25 	0.0047779299 	2.1052602e-24 	0.0046717413
0.030828522 	0.0050646762 	-0.00019752396 	1.4341119e-24 	0.0053444847 	2.1792626e-24 	0.0052045989
0.034192287 	0.0055431441 	-0.00029384008 	6.2370734e-25 	0.0059006236 	-6.0938056e-24 	0.0057218985
0.037807015 	0.0060042274 	-0.00039855263 	-2.0467973e-24 	0.0064499096 	-1.7122638e-24 	0.0062270801
0.04169143 	0.0064509694 	-0.00051174139 	2.6403042e-25 	0.0069956741 	6.8511071e-24 	0.0067233308
0.045865653 	0.0068860587 	-0.00063373349 	3.1835735e-24 	0.0075409158 	2.8215725e-24 	0.0072134942
0.050351306 	0.0073118533 	-0.00076501652 	3.0584744e-24 	0.0080883035 	4.6977091e-25 	0.0077000837
0.055171623 	0.0077304401 	-0.00090619354 	2.8120792e-24 	0.0086402153 	-1.7827446e-25 	0.0081853317
0.060351574 	0.0081437016 	-0.001057959 	6.0528154e-25 	0.0091987819 	-5.607668e-24 	0.0086712446
0.06591799 	0.0085533781 	-0.0012210859 	-2.3301048e-24 	0.0097659252 	-1.4106657e-23 	0.0091596536
0.071899704 	0.0089611253 	-0.0013964201 	-1.0139748e-23 	0.01034339 	-2.0508658e-23 	0.009652259
0.078327701 	0.009368566 	-0.0015848776 	-1.9045542e-23 	0.010932768 	-3.228348e-24 	0.010150667
0.085235276 	0.0097773354 	-0.0017874425 	-7.1857384e-24 	0.01153551 	1.5451888e-23 	0.010656423
0.092658211 	0.010189124 	-0.002005166 	-4.6624139e-24 	0.012152941 	4.0323079e-24 	0.011171032
0.10063495 	0.010605715 	-0.0022391649 	-9.8693328e-24 	0.012786259 	8.2598557e-24 	0.011695986
0.10920683 	0.011029022 	-0.0024906197 	8.042197e-24 	0.013436533 	4.0674671e-23 	0.012232776
0.11841823 	0.011461118 	-0.0027607693 	3.2718846e-23 	0.014104704 	4.1992585e-23 	0.012782909
0.12831687 	0.011904263 	-0.0030509046 	3.509453e-23 	0.014791567 	-3.0672333e-23 	0.013347913
0.13895403 	0.012360931 	-0.0033623576 	-7.6337948e-24 	0.015497761 	-5.8410051e-23 	0.013929345
0.1503848 	0.012833821 	-0.0036964851 	-2.7657483e-23 	0.016223751 	-3.0666101e-23 	0.014528785
0.1626684 	0.01332586 	-0.0040546463 	-3.7010408e-23 	0.016969803 	-5.1059028e-23 	0.015147832
0.17586845 	0.013840201 	-0.004438173 	-4.4722065e-23 	0.017735963 	5.0350853e-23 	0.015788081
0.19005333 	0.014380192 	-0.0048483272 	-2.2964429e-24 	0.018522016 	1.4375357e-22 	0.016451088
0.20529651 	0.014949354 	-0.0052861853 	1.1675197e-23 	0.019327351 	4.2748505e-23 	0.017138324
0.22167696 	0.015551489 	-0.0057520481 	-8.8657638e-24 	0.020150646 	9.6272194e-23 	0.017851091
0.23927951 	0.01619087 	-0.0062448255 	-1.4245779e-23 	0.02098981 	5.003358e-23 	0.018590429
0.25819535 	0.016871521 	-0.0067633974 	5.3825207e-23 	0.021842455 	-2.6200601e-22 	0.019357015
0.27852246 	0.017595546 	-0.0073091041 	7.5574151e-23 	0.022706494 	-2.7123858e-22 	0.020150986
0.30036613 	0.018363993 	-0.0078831524 	9.0667864e-23 	0.02357917 	-1.0261656e-22 	0.020971586
0.32383951 	0.019177682 	-0.0084839487 	1.6416537e-23 	0.024455748 	1.9453027e-22 	0.021816777
0.34906419 	0.020035755 	-0.0091083707 	-1.3217531e-22 	0.025329534 	1.8186122e-22 	0.022682768
0.37617083 	0.020934812 	-0.0097518265 	-6.4652544e-23 	0.026192048 	1.648856e-22 	0.023563362
0.40529983 	0.021868106 	-0.010407887 	-1.9226194e-22 	0.027033123 	2.6743092e-22 	0.024449128
0.43660209 	0.022824489 	-0.011069747 	-5.9263994e-23 	0.027830878 	1.729443e-22 	0.0253264
0.47023974 	0.023795548 	-0.01176784 	-5.8743156e-22 	0.028550793 	9.0723173e-23 	0.026176334
0.50638702 	0.024816212 	-0.012348709 	-2.0267385e-23 	0.029128977 	-2.327459e-22 	0.026976499
0.54523117 	0.025852749 	-0.012744697 	3.9420952e-22 	0.029542631 	2.2189771e-22 	0.0276967
0.5869734 	0.026762912 	-0.01305925 	-7.016843e-22 	0.029792759 	5.5160407e-22 	0.02827535
0.63182993 	0.027425134 	-0.013254978 	-1.4780331e-21 	0.029823866 	4.0944667e-23 	0.028623817
0.6800331 	0.027769502 	-0.013301549 	-5.1260872e-23 	0.029575976 	-1.2493109e-22 	0.028673004
0.73183261 	0.027745933 	-0.013174989 	-4.9734368e-22 	0.028985054 	6.7002067e-22 	0.028365904
0.78749677 	0.027319448 	-0.012859448 	-3.1989574e-21 	0.028010709 	9.2141854e-22 	0.027665218
0.84731391 	0.026500876 	-0.012363623 	-3.6720046e-21 	0.02667524 	-7.1979277e-26 	0.026587911
0.91159388 	0.025349844 	-0.011720391 	-8.0782654e-22 	0.025057241 	-6.186438e-22 	0.025203247
0.98066963 	0.02397872 	-0.010986087 	-2.5510591e-22 	0.023283938 	6.1283198e-23 	0.023631014
1.054899 	0.022532356 	-0.010229532 	-3.4333333e-21 	0.021503964 	5.5884648e-22 	0.022017918
1.1346664 	0.021145269 	-0.0095121656 	-1.9478976e-21 	0.019844122 	-3.1830465e-22 	0.020494585
1.2203851 	0.019898857 	-0.0088690981 	2.8139174e-21 	0.018370937 	-4.412182e-22 	0.019134967
1.3124991 	0.01880519 	-0.008302928 	7.4908099e-22 	0.017081771 	-1.1710022e-22 	0.017943577
1.4114856 	0.017818275 	-0.0077914667 	6.0747386e-21 	0.015925254 	-6.1740047e-22 	0.016871758
1.5178571 	0.016871133 	-0.0073045099 	8.58173e-21 	0.014839958 	1.9291082e-22 	0.015855592
1.6242287 	0.015939509 	-0.0068336017 	-1.0413981e-20 	0.013806789 	1.0822968e-21 	0.014873333
1.7232152 	0.01504065 	-0.0063856584 	-9.1276363e-21 	0.012832829 	1.0266646e-22 	0.01393683
1.8153292 	0.014190481 	-0.0059612488 	-4.8226497e-21 	0.011913454 	8.7424123e-23 	0.013052296
1.9010479 	0.013384864 	-0.0055170059 	-9.001872e-21 	0.01105353 	2.0931252e-22 	0.01221952
1.9808153 	0.012607372 	-0.0050277616 	-5.0755497e-21 	0.010263362 	3.4223456e-24 	0.011435051
2.0550447 	0.011855011 	-0.0045271858 	-6.4380219e-21 	0.0095424292 	1.304771e-22 	0.010698534
2.1241204 	0.011135328 	-0.0040326935 	-3.2570723e-21 	0.0088880158 	1.8883393e-22 	0.010011765
2.1884004 	0.010454769 	-0.0035490856 	-8.1037124e-21 	0.0082959842 	6.2847621e-22 	0.0093753671
2.2482175 	0.0098154218 	-0.0030819674 	-1.3688925e-20 	0.007761201 	8.4005796e-23 	0.0087883096
2.3038817 	0.0092178242 	-0.0026350841 	-2.7743231e-21 	0.0072794473 	-6.0442999e-22 	0.0082486418
2.3556812 	0.008661764 	-0.0022109914 	1.8668426e-21 	0.0068463577 	-3.8290376e-22 	0.0077540589
2.4038844 	0.0081461351 	-0.0018104349 	4.2585874e-21 	0.0064580301 	-2.9046579e-22 	0.0073020759
2.4487409 	0.007669798 	-0.0014340066 	6.6484104e-21 	0.0061106129 	2.3247556e-22 	0.006890202
2.4904831 	0.0072317159 	-0.0010817074 	-2.1287823e-21 	0.0058005838 	6.3234582e-22 	0.0065161482
2.5293273 	0.0068310196 	-0.00075310935 	-5.3693994e-21 	0.0055248649 	1.5014102e-23 	0.0061779399
2.5654745 	0.0064670375 	-0.0004474586 	-8.1694072e-22 	0.0052809257 	-3.1384254e-22 	0.0058739792
2.5991122 	0.0061393302 	-0.00016373053 	9.3274695e-22 	0.0050668167 	1.2450577e-22 	0.0056030735
2.6304145 	0.0058476982 	9.9291101e-05 	-2.4022585e-21 	0.0048811694 	2.5204103e-22 	0.0053644347
2.6595435 	0.0055921371 	0.00034295834 	-2.7923734e-21 	0.0047231661 	-2.4282514e-23 	0.0051576516
2.6866501 	0.0053727871 	0.00056869895 	-1.5709229e-21 	0.0045924771 	-1.144599e-22 	0.0049826336
2.7118748 	0.0051898809 	0.0007780303 	-6.0016366e-22 	0.0044891642 	-2.8466087e-22 	0.0048395261
2.7353482 	0.0050436329 	0.00097253719 	2.0763166e-21 	0.0044135475 	-1.1116037e-22 	0.0047285949
2.7571918 	0.0049341083 	0.0011537757 	7.5261473e-22 	0.0043660524 	2.3661958e-22 	0.0046500862
2.7775189 	0.0048613739 	0.00132335 	-7.9200248e-22 	0.0043472817 	1.3562739e-22 	0.0046043333
2.7964348 	0.0048244522 	0.0014826759 	-7.0952536e-22 	0.0043570054 	-1.0724854e-23 	0.0045907335
2.8140373 	0.0048217801 	0.001633008 	-5.2591903e-22 	0.0043945182 	-4.3137434e-23 	0.004608153
2.8304178 	0.0048516922 	0.0017754803 	-2.0943392e-22 	0.0044590252 	-2.9781242e-23 	0.0046553615
2.845661 	0.0049114942 	0.0019108619 	-1.5912773e-22 	0.0045487407 	-2.5372543e-23 	0.004730119
2.8598458 	0.0049977786 	0.0020396088 	1.7190699e-23 	0.0046611287 	-9.6348955e-24 	0.0048294549
2.8730459 	0.0051065229 	0.0021618403 	-3.591875e-23 	0.0047929585 	7.6548139e-24 	0.0049497519
2.8853295 	0.0052332659 	0.0022773685 	-2.5261368e-23 	0.004940538 	-1.312915e-23 	0.0050869046
2.8967603 	0.0053733372 	0.0023883666 	3.5617411e-23 	0.0050997656 	7.184446e-25 	0.0052365393
2.9073974 	0.0055218685 	0.002493025 	-3.3930585e-23 	0.005266708 	1.3778453e-23 	0.0053942759
2.9172961 	0.0056740314 	0.002580787 	-4.8087278e-23 	0.0054378199 	2.7294524e-23 	0.0055559103
2.9265075 	0.0058255144 	0.0026560807 	-1.6126795e-22 	0.0056080765 	1.68388e-23 	0.0057168025
2.9350793 	0.0059706299 	0.0027280046 	-1.2576781e-22 	0.0057705977 	-3.6419457e-23 	0.0058706326
2.9430561 	0.0061021462 	0.0027932548 	3.0994562e-23 	0.0059183693 	-3.1106311e-23 	0.0060102609
2.950479 	0.0062138735 	0.0028490855 	3.7643829e-23 	0.0060456254 	1.0656981e-23 	0.0061297459
2.9573866 	0.0063014749 	0.0028935789 	-1.6625333e-23 	0.0061484039 	2.1663913e-23 	0.0062249353
2.9638146 	0.0063623185 	0.0029255545 	-5.4500657e-23 	0.0062242362 	1.2273114e-23 	0.0062932743
2.9697963 	0.0063949482 	0.0029443361 	-6.3754157e-23 	0.0062716559 	-8.5119338e-24 	0.0063333
2.9753627 	0.0063987844 	0.0029496293 	-2.0373664e-23 	0.0062899656 	-1.1578774e-23 	0.0063443738
2.9805427 	0.0063736215 	0.002941302 	-1.2609548e-23 	0.0062787947 	-8.4220148e-24 	0.0063262073
2.985363 	0.0063191705 	0.0029191815 	9.1833834e-24 	0.0062376811 	-1.2697246e-23 	0.0062784251
2.9898486 	0.0062349341 	0.0028830009 	2.8353371e-23 	0.0061659642 	4.2438701e-24 	0.0062004486
2.9940229 	0.0061198974 	0.0028322576 	-2.3760021e-24 	0.0060624862 	1.1488997e-23 	0.0060911915
2.9979073 	0.0059722755 	0.0027660972 	-9.0841394e-24 	0.0059253461 	-5.5398583e-25 	0.0059488108
3.001522 	0.0057892766 	0.0026832055 	-8.4607378e-25 	0.0057516703 	-2.9578844e-24 	0.0057704736
3.0048858 	0.0055668906 	0.0025817117 	-1.736179e-25 	0.0055374051 	-5.9739657e-25 	0.0055521483
3.008016 	0.0052997625 	0.002459133 	4.3325556e-25 	0.0052771922 	-8.1369859e-25 	0.0052884781
3.0109289 	0.004981256 	0.0023123811 	1.2399061e-24 	0.0049644336 	-1.5087521e-24 	0.0049728457
3.0136396 	0.0046038775 	0.0021379773 	2.3785191e-24 	0.0045917126 	-1.1937326e-24 	0.0045977951
3.016162 	0.0041601845 	0.0019325074 	2.1335386e-24 	0.0041516912 	5.5578255e-25 	0.0041559381
3.0185094 	0.0036433744 	0.0016840157 	8.0638716e-25 	0.0036377109 	2.0417375e-24 	0.0036405439
3.0206937 	0.0030518097 	0.0013841135 	-6.1767995e-25 	0.0030482671 	9.7161377e-25 	0.0030500389
3.0227264 	0.0024001881 	0.0010436449 	-3.1703915e-25 	0.0023981587 	-3.7832266e-25 	0.0023991734
3.024618 	0.0017318708 	0.0006935432 	-1.0217035e-26 	0.0017308467 	-1.8105607e-25 	0.0017313589
3.0263783 	0.0011191111 	0.00038730489 	-3.6104109e-27 	0.0011186776 	6.9490513e-26 	0.0011188943
3.0280163 	0.00063465598 	0.00017375692 	-1.6803005e-26 	0.00063450976 	-1.1441713e-26 	0.00063458283
3.0295406 	0.00031051092 	6.0317145e-05 	2.0615579e-28 	0.00031047345 	-1.9803904e-26 	0.00031049217
3.0309591 	0.00012760213 	1.5564166e-05 	4.2805348e-28 	0.00012759522 	-1.7837256e-27 	0.00012759867
3.0322791 	4.1539223e-05 	2.7728923e-06 	1.2284182e-28 	4.1538386e-05 	6.3302597e-28 	4.1538804e-05
3.0335075 	9.7844274e-06 	2.9304794e-07 	-9.1291249e-30 	9.7843732e-06 	9.7974627e-29 	9.7843998e-06
3.0346506 	4.0294468e-06 	1.9592886e-08 	-2.6658589e-31 	4.0294453e-06 	-2.1401677e-30 	4.029446e-06
3.0357143 	0 	0 	0 	0 	0 	0
