/*--------------------------------*- C++ -*----------------------------------*\
| =========                 |                                                 |
| \\      /  F ield         | OpenFOAM: The Open Source CFD Toolbox           |
|  \\    /   O peration     | Version:  2.4.0                                 |
|   \\  /    A nd           | Web:      www.OpenFOAM.org                      |
|    \\/     M anipulation  |                                                 |
\*---------------------------------------------------------------------------*/
FoamFile
{
    version     2.0;
    format      ascii;
    class       volVectorField;
    location    "0";
    object      wallGradU;
}
// * * * * * * * * * * * * * * * * * * * * * * * * * * * * * * * * * * * * * //

dimensions      [0 0 -1 0 0 0 0];

internalField   uniform (0 0 0);

boundaryField
{
    inlet
    {
        type            cyclic;
    }
    outlet
    {
        type            cyclic;
    }
    top
    {
        type            calculated;
        value           nonuniform List<vector> 
200
(
(3.4374031 -0 -0)
(3.4376347 -0 -0)
(3.4365387 -0 -0)
(3.4322639 -0 -0)
(3.4230675 -0 -0)
(3.4074883 -0 -0)
(3.3846162 -0 -0)
(3.3546 -0 -0)
(3.3189537 -0 -0)
(3.2796389 -0 -0)
(3.2381443 -0 -0)
(3.1955312 -0 -0)
(3.1525424 -0 -0)
(3.1096971 -0 -0)
(3.0673873 -0 -0)
(3.0259204 -0 -0)
(2.9855547 -0 -0)
(2.9464863 -0 -0)
(2.9087655 -0 -0)
(2.8723208 -0 -0)
(2.8370653 -0 -0)
(2.8029168 -0 -0)
(2.7697964 -0 -0)
(2.7376305 -0 -0)
(2.7063475 -0 -0)
(2.6758795 -0 -0)
(2.6461652 -0 -0)
(2.6171826 -0 -0)
(2.5889739 -0 -0)
(2.56161 -0 -0)
(2.5351616 -0 -0)
(2.5097033 -0 -0)
(2.4853179 -0 -0)
(2.4620939 -0 -0)
(2.4401388 -0 -0)
(2.419576 -0 -0)
(2.4005197 -0 -0)
(2.3830426 -0 -0)
(2.3671896 -0 -0)
(2.3530102 -0 -0)
(2.3405587 -0 -0)
(2.3298917 -0 -0)
(2.3210668 -0 -0)
(2.3141394 -0 -0)
(2.3091591 -0 -0)
(2.3061671 -0 -0)
(2.3050558 -0 -0)
(2.3049387 -0 -0)
(2.3049387 -0 -0)
(2.3049387 -0 -0)
(2.3049387 -0 -0)
(2.3049387 -0 -0)
(2.3049387 -0 -0)
(2.3049387 -0 -0)
(2.3049387 -0 -0)
(2.3049387 -0 -0)
(2.3049387 -0 -0)
(2.3049387 -0 -0)
(2.3049387 -0 -0)
(2.3049387 -0 -0)
(2.3049387 -0 -0)
(2.3049387 -0 -0)
(2.3049387 -0 -0)
(2.3049387 -0 -0)
(2.3049387 -0 -0)
(2.3049387 -0 -0)
(2.3049387 -0 -0)
(2.3049387 -0 -0)
(2.3049387 -0 -0)
(2.3049387 -0 -0)
(2.3049387 -0 -0)
(2.3049387 -0 -0)
(2.3049387 -0 -0)
(2.3049387 -0 -0)
(2.3049387 -0 -0)
(2.3049387 -0 -0)
(2.3049387 -0 -0)
(2.3049387 -0 -0)
(2.3049387 -0 -0)
(2.3049387 -0 -0)
(2.3049387 -0 -0)
(2.3049387 -0 -0)
(2.3049387 -0 -0)
(2.3049387 -0 -0)
(2.3049387 -0 -0)
(2.3049387 -0 -0)
(2.3049387 -0 -0)
(2.3049387 -0 -0)
(2.3049387 -0 -0)
(2.3049387 -0 -0)
(2.3049387 -0 -0)
(2.3049387 -0 -0)
(2.3049387 -0 -0)
(2.3049387 -0 -0)
(2.3049387 -0 -0)
(2.3049387 -0 -0)
(2.3049387 -0 -0)
(2.3049387 -0 -0)
(2.3049387 -0 -0)
(2.3049387 -0 -0)
(2.3049387 -0 -0)
(2.3049387 -0 -0)
(2.3049387 -0 -0)
(2.3049387 -0 -0)
(2.3049387 -0 -0)
(2.3049387 -0 -0)
(2.3049387 -0 -0)
(2.3049387 -0 -0)
(2.3049387 -0 -0)
(2.3049387 -0 -0)
(2.3049387 -0 -0)
(2.3049387 -0 -0)
(2.3049387 -0 -0)
(2.3049387 -0 -0)
(2.3049387 -0 -0)
(2.3049387 -0 -0)
(2.3049387 -0 -0)
(2.3049387 -0 -0)
(2.3049387 -0 -0)
(2.3049387 -0 -0)
(2.3049387 -0 -0)
(2.3049387 -0 -0)
(2.3049387 -0 -0)
(2.3049387 -0 -0)
(2.3049387 -0 -0)
(2.3049387 -0 -0)
(2.3049387 -0 -0)
(2.3049387 -0 -0)
(2.3049387 -0 -0)
(2.3049387 -0 -0)
(2.3049387 -0 -0)
(2.3049387 -0 -0)
(2.3049387 -0 -0)
(2.3049387 -0 -0)
(2.3049387 -0 -0)
(2.3049387 -0 -0)
(2.3049387 -0 -0)
(2.3049387 -0 -0)
(2.3049387 -0 -0)
(2.3049387 -0 -0)
(2.3049387 -0 -0)
(2.3049387 -0 -0)
(2.3049387 -0 -0)
(2.3049387 -0 -0)
(2.3049387 -0 -0)
(2.3049387 -0 -0)
(2.3049387 -0 -0)
(2.3049387 -0 -0)
(2.3049387 -0 -0)
(2.3049387 -0 -0)
(2.3049387 -0 -0)
(2.3049387 -0 -0)
(2.3049387 -0 -0)
(2.3050557 -0 -0)
(2.306167 -0 -0)
(2.3091595 -0 -0)
(2.314139 -0 -0)
(2.321066 -0 -0)
(2.3298927 -0 -0)
(2.3405587 -0 -0)
(2.3530084 -0 -0)
(2.3671892 -0 -0)
(2.3830446 -0 -0)
(2.4005227 -0 -0)
(2.4195754 -0 -0)
(2.4401355 -0 -0)
(2.4620919 -0 -0)
(2.4853174 -0 -0)
(2.5097045 -0 -0)
(2.5351643 -0 -0)
(2.5616142 -0 -0)
(2.5889795 -0 -0)
(2.6171896 -0 -0)
(2.6461736 -0 -0)
(2.6758873 -0 -0)
(2.7063475 -0 -0)
(2.7376244 -0 -0)
(2.7697913 -0 -0)
(2.8029126 -0 -0)
(2.8370618 -0 -0)
(2.8723181 -0 -0)
(2.9087635 -0 -0)
(2.9464849 -0 -0)
(2.9855536 -0 -0)
(3.0259197 -0 -0)
(3.0673869 -0 -0)
(3.1096976 -0 -0)
(3.152544 -0 -0)
(3.1955337 -0 -0)
(3.2381486 -0 -0)
(3.279646 -0 -0)
(3.3189594 -0 -0)
(3.3545986 -0 -0)
(3.3846133 -0 -0)
(3.4074899 -0 -0)
(3.423069 -0 -0)
(3.4322637 -0 -0)
(3.4365388 -0 -0)
(3.4376348 -0 -0)
(3.4374031 -0 -0)
)
;
    }
    hills
    {
        type            calculated;
        value           nonuniform List<vector> 
200
(
(3.4374588 -0 -0)
(3.4376531 -0 -0)
(3.438209 -0 -0)
(3.444201 -0 -0)
(3.465619 -0 -0)
(3.5158463 -0 -0)
(3.6073018 -0 -0)
(3.732126 -0 -0)
(3.8486758 -0 -0)
(3.9408497 -0 -0)
(4.0039915 -0 -0)
(4.0377311 -0 -0)
(4.0456597 -0 -0)
(4.030001 -0 -0)
(3.9935444 -0 -0)
(3.9378788 -0 -0)
(3.8649753 -0 -0)
(3.7810658 -0 -0)
(3.7003522 -0 -0)
(3.6254239 -0 -0)
(3.5556907 -0 -0)
(3.4908453 -0 -0)
(3.4306125 -0 -0)
(3.3744876 -0 -0)
(3.3224761 -0 -0)
(3.274031 -0 -0)
(3.2288319 -0 -0)
(3.182593 -0 -0)
(3.1321672 -0 -0)
(3.0777365 -0 -0)
(3.019716 -0 -0)
(2.9585427 -0 -0)
(2.89467 -0 -0)
(2.8285765 -0 -0)
(2.7607004 -0 -0)
(2.6921166 -0 -0)
(2.6256108 -0 -0)
(2.5641839 -0 -0)
(2.5082103 -0 -0)
(2.4579865 -0 -0)
(2.4139703 -0 -0)
(2.3765892 -0 -0)
(2.3462963 -0 -0)
(2.3235901 -0 -0)
(2.3089335 -0 -0)
(2.3027401 -0 -0)
(2.3043234 -0 -0)
(2.3049531 -0 -0)
(2.3049531 -0 -0)
(2.3049531 -0 -0)
(2.3049531 -0 -0)
(2.3049531 -0 -0)
(2.3049531 -0 -0)
(2.3049531 -0 -0)
(2.3049531 -0 -0)
(2.3049531 -0 -0)
(2.3049531 -0 -0)
(2.3049531 -0 -0)
(2.3049531 -0 -0)
(2.3049531 -0 -0)
(2.3049531 -0 -0)
(2.3049531 -0 -0)
(2.3049531 -0 -0)
(2.3049531 -0 -0)
(2.3049531 -0 -0)
(2.3049531 -0 -0)
(2.3049531 -0 -0)
(2.3049531 -0 -0)
(2.3049531 -0 -0)
(2.3049531 -0 -0)
(2.3049531 -0 -0)
(2.3049531 -0 -0)
(2.3049531 -0 -0)
(2.3049531 -0 -0)
(2.3049531 -0 -0)
(2.3049531 -0 -0)
(2.3049531 -0 -0)
(2.3049531 -0 -0)
(2.3049531 -0 -0)
(2.3049531 -0 -0)
(2.3049531 -0 -0)
(2.3049531 -0 -0)
(2.3049531 -0 -0)
(2.3049531 -0 -0)
(2.3049531 -0 -0)
(2.3049531 -0 -0)
(2.3049531 -0 -0)
(2.3049531 -0 -0)
(2.3049531 -0 -0)
(2.3049531 -0 -0)
(2.3049531 -0 -0)
(2.3049531 -0 -0)
(2.3049531 -0 -0)
(2.3049531 -0 -0)
(2.3049531 -0 -0)
(2.3049531 -0 -0)
(2.3049531 -0 -0)
(2.3049531 -0 -0)
(2.3049531 -0 -0)
(2.3049531 -0 -0)
(2.3049531 -0 -0)
(2.3049531 -0 -0)
(2.3049531 -0 -0)
(2.3049531 -0 -0)
(2.3049531 -0 -0)
(2.3049531 -0 -0)
(2.3049531 -0 -0)
(2.3049531 -0 -0)
(2.3049531 -0 -0)
(2.3049531 -0 -0)
(2.3049531 -0 -0)
(2.3049531 -0 -0)
(2.3049531 -0 -0)
(2.3049531 -0 -0)
(2.3049531 -0 -0)
(2.3049531 -0 -0)
(2.3049531 -0 -0)
(2.3049531 -0 -0)
(2.3049531 -0 -0)
(2.3049531 -0 -0)
(2.3049531 -0 -0)
(2.3049531 -0 -0)
(2.3049531 -0 -0)
(2.3049531 -0 -0)
(2.3049531 -0 -0)
(2.3049531 -0 -0)
(2.3049531 -0 -0)
(2.3049531 -0 -0)
(2.3049531 -0 -0)
(2.3049531 -0 -0)
(2.3049531 -0 -0)
(2.3049531 -0 -0)
(2.3049531 -0 -0)
(2.3049531 -0 -0)
(2.3049531 -0 -0)
(2.3049531 -0 -0)
(2.3049531 -0 -0)
(2.3049531 -0 -0)
(2.3049531 -0 -0)
(2.3049531 -0 -0)
(2.3049531 -0 -0)
(2.3049531 -0 -0)
(2.3049531 -0 -0)
(2.3049531 -0 -0)
(2.3049531 -0 -0)
(2.3049531 -0 -0)
(2.3049531 -0 -0)
(2.3049531 -0 -0)
(2.3049531 -0 -0)
(2.3049531 -0 -0)
(2.3049531 -0 -0)
(2.3049531 -0 -0)
(2.3049531 -0 -0)
(2.3043241 -0 -0)
(2.3027399 -0 -0)
(2.3089375 -0 -0)
(2.3235699 -0 -0)
(2.346315 -0 -0)
(2.3766254 -0 -0)
(2.4138821 -0 -0)
(2.4580053 -0 -0)
(2.5082629 -0 -0)
(2.5642853 -0 -0)
(2.6255921 -0 -0)
(2.6918219 -0 -0)
(2.7607307 -0 -0)
(2.8286706 -0 -0)
(2.8947532 -0 -0)
(2.9586367 -0 -0)
(3.0197997 -0 -0)
(3.0778437 -0 -0)
(3.1322946 -0 -0)
(3.1826874 -0 -0)
(3.2288517 -0 -0)
(3.2739297 -0 -0)
(3.3215634 -0 -0)
(3.3745718 -0 -0)
(3.430701 -0 -0)
(3.490911 -0 -0)
(3.5557273 -0 -0)
(3.6254813 -0 -0)
(3.7003826 -0 -0)
(3.7810985 -0 -0)
(3.864999 -0 -0)
(3.9378996 -0 -0)
(3.9935602 -0 -0)
(4.0300945 -0 -0)
(4.0457011 -0 -0)
(4.0378017 -0 -0)
(4.0041578 -0 -0)
(3.9410193 -0 -0)
(3.8484266 -0 -0)
(3.7318602 -0 -0)
(3.6074218 -0 -0)
(3.5158957 -0 -0)
(3.465589 -0 -0)
(3.4442024 -0 -0)
(3.4382096 -0 -0)
(3.4376532 -0 -0)
(3.4374588 -0 -0)
)
;
    }
    front
    {
        type            empty;
    }
    back
    {
        type            empty;
    }
}


// ************************************************************************* //
