y,U_0,U_1,U_2
0.44812952,0,0,0
0.44889266,1.2380938e-18,9.6144456e-19,-1.7866682e-37
0.44970152,2.5321499e-18,1.9654173e-18,-3.2317797e-38
0.45055892,3.9026293e-18,3.0275317e-18,7.909821e-38
0.45146777,5.3526174e-18,4.1499915e-18,-2.8785275e-38
0.45243114,6.8853163e-18,5.3350622e-18,3.8411653e-37
0.45345231,8.5040502e-18,6.5850667e-18,-1.4187515e-37
0.45453475,1.0212269e-17,7.902391e-18,-4.5271981e-38
0.45568213,1.2013555e-17,9.2894873e-18,2.6985329e-37
0.45689834,1.3911626e-17,1.0748875e-17,-1.3181035e-37
0.45818751,1.5910351e-17,1.2283145e-17,5.8286016e-37
0.45955401,1.8013749e-17,1.3894957e-17,5.5807847e-37
0.46100249,2.0226009e-17,1.5587045e-17,-1.3001022e-36
0.46253785,2.2551491e-17,1.7362221e-17,-5.6090683e-37
0.46416529,2.4994747e-17,1.9223372e-17,1.3807583e-36
0.46589035,2.7560526e-17,2.1173467e-17,-4.4711122e-37
0.46771887,3.0253792e-17,2.321556e-17,-6.3950694e-38
0.46965705,3.3079742e-17,2.5352791e-17,9.861496e-37
0.47171146,3.6043817e-17,2.7588391e-17,1.9550649e-38
0.47388905,3.9151727e-17,2.9925682e-17,5.8835436e-37
0.47619722,4.2409469e-17,3.2368087e-17,-5.9975361e-37
0.47864379,4.5823353e-17,3.4919131e-17,-1.9586325e-36
0.48123703,4.9400024e-17,3.7582445e-17,7.1584732e-37
0.48398573,5.3146496e-17,4.0361771e-17,2.6869043e-36
0.4868992,5.7070182e-17,4.3260969e-17,-1.879671e-36
0.4899873,6.1178926e-17,4.6284021e-17,-1.485231e-36
0.49326049,6.548105e-17,4.943504e-17,-1.3092636e-36
0.49672983,6.9985392e-17,5.2718271e-17,2.3355154e-36
0.50040707,7.4701358e-17,5.6138104e-17,1.5889328e-36
0.50430464,7.9638976e-17,5.9699075e-17,-4.9380919e-36
0.50843572,8.4808957e-17,6.3405874e-17,1.1821213e-36
0.51281426,9.0222762e-17,6.7263353e-17,3.7644257e-36
0.51745505,9.5892681e-17,7.1276532e-17,9.3468344e-37
0.52237379,1.0183191e-16,7.5450601e-17,-2.5724581e-36
0.52758706,1.0805466e-16,7.9790925e-17,-5.9928247e-37
0.53311245,1.1457624e-16,8.4303043e-17,3.8624391e-36
0.53896862,1.2141319e-16,8.8992669e-17,-2.6179029e-36
0.5451753,1.2858341e-16,9.3865682e-17,-5.7608634e-36
0.55175341,1.3610629e-16,9.8928118e-17,1.0645804e-36
0.5587251,1.440029e-16,1.0418614e-16,3.2019435e-36
0.56611385,1.5229611e-16,1.0964602e-16,2.4885433e-37
0.57394452,1.6101087e-16,1.153141e-16,1.9490757e-36
0.58224344,1.7017433e-16,1.2119668e-16,-1.9810503e-36
0.59103849,1.7981612e-16,1.2730001e-16,-3.600585e-36
0.60035921,1.8996862e-16,1.3363013e-16,1.1353085e-36
0.61023689,2.0066716e-16,1.4019273e-16,-1.4010622e-36
0.62070465,2.1195035e-16,1.4699295e-16,1.082974e-36
0.63179756,2.2386035e-16,1.5403517e-16,1.0198387e-36
0.64355276,2.3644313e-16,1.6132267e-16,3.8718934e-36
0.65600958,2.4974875e-16,1.6885722e-16,5.854385e-36
0.66920964,2.6383163e-16,1.7663867e-16,4.9849746e-37
0.68319703,2.7875064e-16,1.8466429e-16,-8.6827863e-36
0.6980184,2.9456926e-16,1.9292811e-16,-8.1179878e-36
0.71372312,3.1135551e-16,2.0142006e-16,1.0097719e-35
0.73036348,3.2918174e-16,2.1012498e-16,8.246497e-38
0.74799478,3.4812412e-16,2.1902152e-16,6.557561e-36
0.76667556,3.682619e-16,2.2808085e-16,8.7095597e-36
0.78646776,3.8967619e-16,2.3726525e-16,-1.4778091e-35
0.80743691,4.124483e-16,2.465267e-16,-1.8955532e-36
0.82965235,4.3665746e-16,2.5580532e-16,5.52495e-36
0.85318741,4.6237786e-16,2.6502801e-16,-2.9417399e-37
0.87811967,4.8967491e-16,2.7410716e-16,-2.8073121e-36
0.90453116,5.1860075e-16,2.8293979e-16,6.7404914e-37
0.93250863,5.4918891e-16,2.9140715e-16,-5.6640467e-36
0.96214382,5.8144822e-16,2.993751e-16,-5.1330564e-36
0.99353369,6.1535613e-16,3.0669528e-16,7.8559919e-36
1.0139869,6.37184e-16,3.1070447e-16,1.2041699e-36
1.0267827,6.5087048e-16,3.1319879e-16,-2.8741125e-36
1.0620005,6.8789756e-16,3.1870618e-16,-1.7134903e-36
1.0992983,7.2624652e-16,3.2305737e-16,5.8013064e-36
1.1387972,7.6569875e-16,3.2608288e-16,-8.6279965e-36
1.1806248,8.0597347e-16,3.2762239e-16,-2.8124001e-36
1.2249163,8.4672503e-16,3.2753148e-16,4.889862e-36
1.271814,8.8754214e-16,3.2568811e-16,3.3580898e-36
1.3214686,9.2794857e-16,3.2199816e-16,6.1009923e-37
1.3740391,9.6740516e-16,3.1639972e-16,-5.0965864e-36
1.4296932,1.0053127e-15,3.0886564e-16,-1.4937546e-36
1.4886081,1.0410146e-15,2.994046e-16,3.0348511e-37
1.5509706,1.0737998e-15,2.8806061e-16,1.8643701e-36
1.6169779,1.1029042e-15,2.7491159e-16,7.3978812e-38
1.6868383,1.1275115e-15,2.6006803e-16,-1.5469054e-36
1.7607711,1.1465538e-15,2.4387693e-16,2.5962351e-36
1.8345812,1.1588565e-15,2.2728366e-16,3.7847403e-37
1.9041009,1.1643347e-15,2.1122136e-16,-1.499299e-36
1.9695866,1.1638483e-15,1.9598275e-16,6.283513e-37
2.0312786,1.1583007e-15,1.8159893e-16,-1.2127876e-36
2.0894021,1.1484751e-15,1.6807182e-16,-1.647033e-37
2.0951826,1.1470618e-15,1.6673259e-16,2.4026457e-38
2.1441708,1.1350396e-15,1.553671e-16,1.5063019e-36
2.19578,1.1185889e-15,1.434793e-16,8.3646143e-37
2.244415,1.0996316e-15,1.3237787e-16,6.6450345e-37
2.2902505,1.0786074e-15,1.2202703e-16,7.3057568e-37
2.3334504,1.0558994e-15,1.123888e-16,1.7909662e-36
2.3741686,1.0318413e-15,1.0342441e-16,2.1969119e-36
2.4125499,1.0067229e-15,9.5095821e-17,-3.7547354e-37
2.4487301,9.8079264e-16,8.7366029e-17,-1.0201842e-36
2.4828372,9.542638e-16,8.0199061e-17,-2.6755037e-37
2.5149913,9.2732022e-16,7.356027e-17,-2.4668321e-37
2.5453057,9.0012021e-16,6.7416435e-17,-9.6233344e-38
2.5738865,8.7279994e-16,6.1735812e-17,5.9586963e-37
2.600834,8.4547624e-16,5.6488154e-17,1.9175282e-37
2.6262423,8.1824916e-16,5.1644711e-17,-2.7627913e-37
2.6502002,7.9120411e-16,4.7178214e-17,-4.789954e-37
2.672791,7.6441376e-16,4.306285e-17,-8.2241854e-38
2.6940934,7.3793969e-16,3.9274223e-17,5.6268013e-41
2.7141814,7.1183382e-16,3.578932e-17,1.496798e-37
2.7331246,6.8613966e-16,3.258646e-17,-2.766448e-37
2.7509888,6.6089338e-16,2.9645249e-17,-5.6842237e-37
2.7678357,6.3612479e-16,2.6946534e-17,3.5853163e-37
2.7837236,6.1185812e-16,2.4472345e-17,6.153942e-37
2.7987073,5.8811277e-16,2.2205851e-17,9.7588171e-38
2.8128386,5.6490395e-16,2.0131304e-17,-5.6281638e-38
2.8261662,5.4224318e-16,1.823399e-17,-1.2895758e-38
2.8387359,5.2013881e-16,1.6500176e-17,8.1138197e-38
2.8505912,4.9859641e-16,1.4917062e-17,2.4186752e-38
2.8617726,4.7761917e-16,1.3472729e-17,-6.6037355e-38
2.8723187,4.5720818e-16,1.2156092e-17,-1.4042074e-37
2.8822656,4.373627e-16,1.0956853e-17,7.8962057e-38
2.8916476,4.1808048e-16,9.8654572e-18,7.5649952e-38
2.9004967,3.9935787e-16,8.8730451e-18,-3.806382e-41
2.9088434,3.8119009e-16,7.9714125e-18,-1.9004054e-37
2.9167163,3.6357135e-16,7.1529688e-18,-7.1819322e-39
2.9241422,3.4649499e-16,6.410698e-18,1.1332256e-37
2.9311467,3.2995365e-16,5.7381214e-18,6.5707779e-38
2.9377537,3.1393934e-16,5.1292616e-18,6.7237241e-38
2.9439858,2.9844353e-16,4.5786086e-18,-1.0944894e-37
2.9498644,2.8345729e-16,4.0810879e-18,-4.0344152e-38
2.9554094,2.689713e-16,3.6320296e-18,2.9918388e-38
2.96064,2.5497595e-16,3.2271399e-18,5.7088988e-38
2.9655739,2.414614e-16,2.8624741e-18,-4.4202972e-38
2.9702279,2.2841762e-16,2.5344107e-18,-4.981336e-38
2.9746181,2.1583444e-16,2.2396277e-18,5.1748723e-38
2.9787593,2.037016e-16,1.97508e-18,1.4052987e-38
2.9826657,1.9200876e-16,1.7379787e-18,-6.7960977e-39
2.9863507,1.8074554e-16,1.525771e-18,-3.8767278e-38
2.9898267,1.6990157e-16,1.336122e-18,-1.4614209e-38
2.9931057,1.5946649e-16,1.166898e-18,1.6816348e-38
2.9961989,1.4942996e-16,1.0161499e-18,1.8591561e-39
2.9991167,1.3978172e-16,8.8209906e-19,1.6262993e-38
3.0018692,1.3051157e-16,7.6312336e-19,1.6044607e-38
3.0044656,1.216094e-16,6.5774437e-19,-1.386959e-38
3.006915,1.1306519e-16,5.6461565e-19,-4.5920532e-39
3.0092255,1.0486905e-16,4.8251185e-19,-5.8251751e-39
3.0114051,9.7011183e-17,4.1031864e-19,2.1624648e-39
3.0134611,8.9481939e-17,3.4702335e-19,1.5020397e-39
3.0154007,8.2271799e-17,2.9170645e-19,1.6538627e-39
3.0172304,7.5371388e-17,2.4353355e-19,5.9191576e-39
3.0189564,6.8771473e-17,2.0174815e-19,2.7634218e-39
3.0205847,6.2462975e-17,1.6566486e-19,-3.1520096e-39
3.0221207,5.6436972e-17,1.3466332e-19,-2.0388492e-39
3.0235696,5.0684703e-17,1.0818243e-19,1.2884836e-39
3.0249365,4.5197566e-17,8.5715156e-20,-2.3941317e-39
3.026226,3.9967123e-17,6.6803754e-20,-1.7050418e-39
3.0274424,3.4985104e-17,5.1035351e-20,2.5705606e-40
3.0285899,3.0243404e-17,3.8037939e-20,7.1420275e-40
3.0296723,2.5734089e-17,2.747669e-20,3.8863008e-40
3.0306935,2.1449391e-17,1.9050514e-20,-1.4627831e-40
3.0316569,1.738171e-17,1.2488703e-20,-2.375779e-40
3.0325656,1.3523611e-17,7.5480523e-21,3.3027954e-40
3.0334229,9.8678293e-18,4.012937e-21,5.0544445e-42
3.0342316,6.4072607e-18,1.698418e-21,1.0334298e-40
3.0349946,3.1349687e-18,4.4601113e-22,-1.6173403e-41
3.0357143,0,0,0
