/*--------------------------------*- C++ -*----------------------------------*\
| =========                 |                                                 |
| \\      /  F ield         | OpenFOAM: The Open Source CFD Toolbox           |
|  \\    /   O peration     | Version:  2.4.0                                 |
|   \\  /    A nd           | Web:      www.OpenFOAM.org                      |
|    \\/     M anipulation  |                                                 |
\*---------------------------------------------------------------------------*/
FoamFile
{
    version     2.0;
    format      ascii;
    class       volScalarField;
    location    "70";
    object      epsilon;
}
// * * * * * * * * * * * * * * * * * * * * * * * * * * * * * * * * * * * * * //

dimensions      [0 2 -3 0 0 0 0];

internalField   nonuniform List<scalar> 
32000
(
11.406425
2.0974445
8.6581475
1.9156353
1.2465253
0.017836348
0.064708836
0.0019008603
0.0099062394
0.0041806877
0.0042676203
0.0031337586
0.0026555569
0.0021963945
0.0018720081
0.001614483
0.0014181803
0.0012745802
0.0011666917
0.0010786467
0.0010025281
0.0009352631
0.00087388211
0.00081687939
0.00076241869
0.0007096309
0.00065597135
0.00060121218
0.00054817675
0.0004987478
0.00045329493
0.00041182488
0.00037430525
0.00034063638
0.00031094974
0.00028594507
0.00026622107
0.00025070193
0.00023818453
0.00022838459
0.00022142741
0.00021757798
0.0002173797
0.00022156724
0.00023202632
0.00025144171
0.00029646206
0.00035213619
0.00039062094
0.00042410457
0.00045343759
0.00048010335
0.00050443984
0.00052686006
0.00054759241
0.00056683539
0.00058474076
0.00060143606
0.00061702659
0.0006316043
0.0006452505
0.00065803566
0.00067002271
0.00068126854
0.00069182407
0.00070173518
0.00071104447
0.00071979023
0.00072800708
0.00073572733
0.00074298055
0.00074979475
0.00075619426
0.00076220319
0.00076784269
0.00077313247
0.00077809417
0.00078274275
0.00078710159
0.00079117976
0.00079500137
0.00079856407
0.00080186292
0.00080492123
0.00080774581
0.00081035285
0.00081274939
0.00081495488
0.00081691427
0.0008187569
0.00082038578
0.00082183604
0.00082311295
0.00082422003
0.00082516019
0.00082593689
0.00082655199
0.0008270074
0.00082730457
0.00082744312
0.00082742209
0.00082724948
0.00082692035
0.00082642978
0.00082577932
0.00082496695
0.0008239902
0.00082284619
0.00082153173
0.00082004282
0.00081837474
0.00081652279
0.00081448124
0.00081224369
0.00080980358
0.00080715325
0.00080428446
0.00080118851
0.0007978553
0.00079427436
0.00079043442
0.00078632275
0.00078192616
0.00077723029
0.0007722189
0.00076687534
0.0007611816
0.00075511724
0.00074866141
0.00074179105
0.00073448021
0.00072670242
0.00071842854
0.00070962543
0.00070025881
0.00069029062
0.00067967848
0.00066837719
0.00065633582
0.00064349807
0.00062980148
0.00061517608
0.00059954217
0.00058280925
0.00056487118
0.00054560189
0.00052485275
0.0005024261
0.00047809549
0.00045145123
0.00042215877
0.00038873488
0.00035033563
0.00029493232
0.00025021228
0.00023100053
0.00022056198
0.00021630303
0.0002165366
0.00022023705
0.00022700663
0.00023682132
0.00024932206
0.00026486275
0.00028439564
0.00030907358
0.00033862536
0.00037192284
0.00040897518
0.00044987979
0.00049464068
0.0005433229
0.00059544869
0.00064928759
0.00070184138
0.0007529309
0.00080495293
0.00086096952
0.00092027588
0.00098527702
0.0010585555
0.0011430482
0.00124625
0.0013840432
0.0015734338
0.001818035
0.0021369139
0.0025390761
0.0031177162
0.0037232591
0.0051505567
0.0051204278
0.011521446
0.0024643335
0.060970213
0.01710909
1.1542705
2.0587134
9.4512025
2.1628997
6.7138805
1.4687412
5.2619305
1.3513404
0.90954639
0.018164897
0.055656555
0.0020117727
0.0090326743
0.0039475753
0.0039881189
0.0029467556
0.0024918178
0.0020603974
0.0017544426
0.0015129769
0.0013296249
0.001196092
0.0010965806
0.001016324
0.00094719922
0.00088579853
0.00082941348
0.00077634868
0.00072498654
0.00067480388
0.00062372688
0.00057170967
0.00052143245
0.00047464281
0.00043160181
0.00039224256
0.00035653649
0.00032442823
0.00029605564
0.00027205366
0.00025298449
0.00023793863
0.00022584244
0.00021640733
0.00020972116
0.00020599641
0.00020565511
0.00020937612
0.00021885436
0.00023654174
0.00027721298
0.00032873075
0.00036570204
0.00039714241
0.0004236373
0.00044668603
0.00046762214
0.00048756625
0.00050663143
0.00052461162
0.00054142327
0.00055710524
0.00057174728
0.00058546083
0.00059837343
0.00061060614
0.00062225188
0.00063333308
0.00064380371
0.00065357663
0.00066258252
0.00067081699
0.00067834685
0.00068527391
0.00069168078
0.00069762156
0.00070315254
0.00070831184
0.00071313002
0.00071763274
0.00072184449
0.00072578247
0.00072946941
0.00073291532
0.0007361415
0.00073914657
0.00074192765
0.00074450483
0.0007468843
0.00074907945
0.00075109596
0.00075294793
0.00075459247
0.00075613297
0.00075748813
0.00075868826
0.00075974136
0.00076064991
0.00076141568
0.00076204103
0.00076252683
0.00076287404
0.0007630834
0.000763154
0.00076308469
0.00076288169
0.00076254016
0.0007620556
0.00076142902
0.00076065824
0.00075974074
0.0007586739
0.0007574545
0.00075607879
0.00075454249
0.00075284116
0.00075096959
0.00074892191
0.00074669209
0.00074427329
0.00074165792
0.00073883799
0.00073580451
0.00073254782
0.00072905764
0.00072532256
0.00072133042
0.00071706812
0.00071252103
0.00070767387
0.00070251017
0.00069701154
0.00069115882
0.00068493105
0.00067830482
0.00067125596
0.00066375808
0.00065578126
0.00064729446
0.00063826337
0.0006286499
0.00061841338
0.00060750814
0.00059588356
0.00058348333
0.0005702437
0.00055609094
0.00054093904
0.00052468417
0.0005071991
0.0004883299
0.00046787103
0.00044558357
0.00042106227
0.0003939625
0.00036293469
0.00032711725
0.00027637199
0.00023560046
0.00021780841
0.00020801584
0.00020395756
0.00020418595
0.00020776297
0.00021428142
0.00022368136
0.00023562019
0.00025041131
0.00026893105
0.00029223207
0.00032004874
0.00035136477
0.00038618468
0.00042459037
0.00046658037
0.00051220596
0.00056102658
0.00061146817
0.0006608252
0.0007089203
0.00075791563
0.00081059443
0.000866394
0.00092749365
0.00099626293
0.0010754118
0.0011717279
0.0012995019
0.0014740038
0.0016985631
0.0019897374
0.0023553473
0.0028753723
0.0034219143
0.0046678938
0.0046993727
0.010084786
0.0027919736
0.050479723
0.017484737
0.83859111
1.4398179
5.6832107
1.5120245
4.0866153
1.0397659
3.2893121
0.96234779
0.6674266
0.017833267
0.047701163
0.0020875813
0.0082054608
0.0037188391
0.0037169826
0.0027630999
0.0023304714
0.0019255711
0.001637388
0.0014115621
0.0012409764
0.0011174898
0.0010264196
0.00095407895
0.00089209862
0.00083669331
0.00078539724
0.00073631533
0.00068804544
0.00064042234
0.00059185667
0.00054250699
0.000494928
0.00045073493
0.0004100744
0.00037279887
0.00033888045
0.00030830851
0.00028122919
0.00025821479
0.00023979109
0.00022521198
0.00021353492
0.00020447121
0.00019807334
0.00019450263
0.00019405817
0.00019735756
0.00020590585
0.0002219176
0.00025837313
0.00030590688
0.00034147619
0.00037098944
0.00039471005
0.00041414357
0.00043168853
0.00044921447
0.00046670686
0.00048353077
0.0004993545
0.00051412404
0.00052791343
0.00054085548
0.00055312727
0.00056490404
0.00057631095
0.00058733708
0.00059783373
0.00060757059
0.00061635734
0.00062414252
0.00063102705
0.00063718832
0.00064276282
0.00064784194
0.00065251345
0.00065682973
0.00066083161
0.00066455133
0.00066801667
0.00067124728
0.00067426548
0.00067708223
0.00067971627
0.00068216714
0.00068443384
0.00068653337
0.00068847119
0.00069025791
0.00069189772
0.00069339976
0.00069473191
0.0006959733
0.00069705698
0.00069800966
0.00069884172
0.00069955414
0.00070014749
0.00070062301
0.00070098051
0.00070121996
0.00070134138
0.00070134324
0.00070122418
0.00070098867
0.00070063191
0.00070014976
0.0006995427
0.00069880835
0.00069794414
0.00069694764
0.00069581562
0.00069454452
0.0006931305
0.00069156934
0.00068985634
0.00068798612
0.00068595314
0.00068375136
0.00068137378
0.00067881313
0.00067606144
0.00067310985
0.000669949
0.00066656876
0.00066295794
0.00065910467
0.00065499584
0.00065061747
0.00064595461
0.00064099082
0.00063570856
0.00063008892
0.00062411095
0.00061775272
0.00061099051
0.00060379756
0.00059614601
0.00058800526
0.00057934144
0.00057011842
0.00056029576
0.00054982852
0.00053866653
0.00052675228
0.00051401792
0.00050038178
0.00048574201
0.00046996951
0.00045290415
0.00043433102
0.00041399733
0.00039150017
0.00036648556
0.00033773521
0.00030438769
0.00025814658
0.00022121537
0.00020479267
0.00019559895
0.00019170547
0.00019190562
0.00019534552
0.0002016038
0.00021058241
0.00022195268
0.00023598587
0.00025348222
0.00027539299
0.00030146497
0.00033079388
0.00036337822
0.00039928501
0.0004385081
0.00048108659
0.00052661996
0.0005736926
0.00061988399
0.00066500876
0.0007109897
0.00076033995
0.00081263472
0.00086982646
0.0009340715
0.0010078481
0.0010972266
0.0012149156
0.0013745099
0.0015790817
0.0018427581
0.0021721834
0.0026347493
0.0031230912
0.0041955694
0.0042810694
0.0087261061
0.0030486815
0.041225872
0.017355737
0.61041221
1.0170995
3.5245171
1.0685534
2.5588094
0.7432676
2.1059991
0.69137032
0.49223552
0.017055513
0.040734199
0.0021310814
0.0074257083
0.0034942414
0.003455047
0.0025834149
0.0021722785
0.0017925798
0.0015214035
0.0013106612
0.0011525322
0.0010389737
0.00095634002
0.00089200554
0.00083731604
0.00078804366
0.00074193097
0.00069688265
0.00065170208
0.00060659062
0.00056045586
0.00051368477
0.00046872778
0.00042707352
0.0003887495
0.00035352036
0.00032135453
0.00029228571
0.00026647067
0.00024442316
0.00022663405
0.0002125145
0.00020125329
0.00019256782
0.00018647915
0.00018310058
0.0001826089
0.00018555162
0.0001932454
0.00020766135
0.00024009344
0.00028381979
0.00031805559
0.00034575276
0.00036676533
0.00038258213
0.00039674449
0.00041191011
0.00042792332
0.00044369776
0.00045864117
0.0004726019
0.00048563776
0.00049790462
0.00050963227
0.00052105396
0.0005323294
0.00054341931
0.00055406242
0.00056387341
0.00057252895
0.00057992471
0.0005861989
0.00059161274
0.00059635744
0.00060058103
0.00060439629
0.0006078712
0.00061105776
0.00061399528
0.0006167152
0.00061923973
0.00062159094
0.00062378065
0.00062582523
0.00062772506
0.00062948069
0.00063110614
0.00063260597
0.00063398801
0.00063525474
0.00063641095
0.0006374333
0.00063837908
0.00063919381
0.00063990303
0.00064051783
0.00064103745
0.0006414612
0.00064178916
0.00064202002
0.00064215278
0.00064218666
0.00064211951
0.00064194963
0.00064167987
0.00064130544
0.00064082242
0.00064023081
0.00063952799
0.00063871132
0.00063777855
0.00063672643
0.00063555157
0.0006342505
0.00063281924
0.00063125357
0.00062954855
0.00062769911
0.00062569999
0.00062354472
0.00062122673
0.00061873903
0.00061607349
0.00061322166
0.0006101746
0.00060692208
0.00060345333
0.00059975679
0.00059581966
0.00059162846
0.0005871686
0.00058242415
0.00057737813
0.000572012
0.00056630599
0.00056023899
0.00055378733
0.00054692627
0.00053962886
0.00053186543
0.00052360435
0.0005148104
0.00050544433
0.00049546213
0.0004848125
0.00047343347
0.00046124752
0.00044815442
0.00043402249
0.00041868437
0.00040191419
0.00038344383
0.0003628704
0.00033983255
0.00031324079
0.00028226226
0.00024035219
0.00020711798
0.00019199879
0.00018334607
0.0001795764
0.00017972307
0.00018301142
0.00018900067
0.00019755254
0.00020834935
0.00022161868
0.00023808507
0.00025859374
0.00028291768
0.00031026056
0.000340614
0.00037403082
0.00041050094
0.00045005306
0.00049232924
0.00053607306
0.00057913929
0.000621326
0.00066431453
0.00071035802
0.0007591623
0.00081245501
0.00087217985
0.00094057965
0.0010230044
0.0011306057
0.0012753761
0.0014601495
0.0016967343
0.0019906146
0.0023974101
0.002828734
0.0037378796
0.0038668739
0.0074632995
0.0032109212
0.033213048
0.01678481
0.44480879
0.72507922
2.2446886
0.76236708
1.6415159
0.53605514
1.3762714
0.50086084
0.36467767
0.015991552
0.034654176
0.0021451917
0.006694214
0.0032736747
0.0032030041
0.0024083036
0.0020179373
0.0016620504
0.0014070364
0.0012107091
0.0010646188
0.00096077964
0.00088650724
0.00083022188
0.00078295419
0.00073995228
0.00069911203
0.00065815193
0.00061606176
0.00057341341
0.00052962139
0.00048532609
0.00044289856
0.00040370966
0.000367665
0.00033443421
0.00030397655
0.00027636866
0.00025178077
0.00023067384
0.00021350675
0.00019983893
0.00018898886
0.00018068765
0.00017493051
0.0001717877
0.0001713178
0.00017398663
0.00018092451
0.00019385299
0.00022250848
0.0002626073
0.0002955403
0.0003215296
0.00033990465
0.00035210555
0.00036290183
0.0003757676
0.00039039079
0.00040521748
0.00041938527
0.00043264019
0.00044502268
0.00045671301
0.00046799646
0.00047916779
0.00049042425
0.00050170482
0.00051262136
0.00052261972
0.00053122909
0.00053828644
0.00054397317
0.00054864279
0.00055255227
0.00055591961
0.00055887639
0.00056150749
0.00056387676
0.00056603093
0.00056800526
0.00056982444
0.00057151039
0.00057307554
0.00057453404
0.00057588697
0.00057713592
0.00057829205
0.00057935876
0.00058034106
0.00058123956
0.00058205529
0.00058277134
0.00058342617
0.00058397532
0.00058444745
0.00058485026
0.00058518176
0.00058543996
0.00058562373
0.00058573064
0.00058575866
0.00058570623
0.00058557052
0.00058534943
0.00058504428
0.00058465025
0.00058416361
0.00058358383
0.00058290807
0.00058213362
0.00058125837
0.00058027903
0.00057919237
0.00057799528
0.000576684
0.00057525473
0.00057370297
0.00057202412
0.00057021359
0.00056826548
0.00056617385
0.00056393263
0.0005615344
0.00055897157
0.00055623634
0.00055331935
0.00055021095
0.00054690097
0.00054337778
0.00053962931
0.00053564274
0.00053140366
0.00052689698
0.00052210647
0.00051701444
0.00051160236
0.00050584955
0.00049973434
0.00049323338
0.00048632114
0.0004789705
0.00047115142
0.00046283038
0.00045396954
0.00044452384
0.00043443712
0.00042363589
0.00041202116
0.00039945802
0.00038577078
0.00037072093
0.00035402346
0.00033527317
0.0003141043
0.000289554
0.00026085395
0.00022308254
0.00019336762
0.00017947098
0.00017129215
0.00016760149
0.00016766798
0.00017078978
0.00017650123
0.00018462202
0.00019484226
0.00020734445
0.00022277745
0.0002418748
0.00026445412
0.00028981948
0.00031795513
0.00034890046
0.00038264226
0.00041920066
0.00045826246
0.00049872969
0.00053872057
0.00057800985
0.00061803823
0.00066081021
0.00070615201
0.00075557148
0.00081080156
0.00087384723
0.0009493433
0.0010469262
0.0011770703
0.0013423838
0.0015525016
0.0018117759
0.0021650448
0.0025410291
0.0032991359
0.003459216
0.0063098379
0.0032668056
0.026405101
0.015842027
0.32425305
0.52128159
1.4637151
0.54872788
1.0752294
0.38978558
0.91523492
0.36576681
0.27128272
0.014760308
0.029366654
0.0021328651
0.0060113939
0.0030571921
0.0029614055
0.0022383689
0.0018680894
0.0015345738
0.0012948184
0.0011121452
0.00097758418
0.00088317056
0.00081711042
0.00076885956
0.00072911942
0.00069251958
0.00065702997
0.00062021629
0.00058122368
0.00054099216
0.00049944958
0.00045751492
0.00041750842
0.00038069555
0.00034685951
0.00031556827
0.00028676519
0.00026056751
0.00023716182
0.0002169638
0.0002004044
0.00018717992
0.00017673473
0.00016882178
0.00016341751
0.00016055535
0.00016018534
0.00016267734
0.00016897831
0.00018055574
0.00020572972
0.00024238524
0.00027401569
0.00029840459
0.00031422042
0.00032281817
0.00033028078
0.00034091159
0.00035422511
0.00036819487
0.00038168379
0.00039433151
0.00040615934
0.00041737259
0.00042831408
0.00043934274
0.00045070007
0.00046230232
0.0004736221
0.00048391846
0.00049255674
0.00049931074
0.00050441546
0.00050832512
0.00051138788
0.00051389163
0.00051598305
0.00051776498
0.00051931346
0.00052068266
0.00052191159
0.00052302716
0.00052405104
0.00052499587
0.00052587376
0.00052668618
0.00052743515
0.00052812901
0.00052876969
0.00052935937
0.00052989659
0.00053037915
0.00053079422
0.00053116466
0.00053145471
0.00053169774
0.00053189578
0.0005320456
0.00053214391
0.00053218831
0.00053217525
0.00053210167
0.00053196522
0.00053176238
0.00053149054
0.00053114968
0.0005307349
0.00053024255
0.00052967164
0.00052901909
0.00052828213
0.00052745874
0.00052654559
0.00052553964
0.00052443808
0.00052323735
0.00052193407
0.00052052414
0.00051900339
0.00051736791
0.00051561229
0.00051373121
0.00051171947
0.00050957031
0.00050727697
0.00050483269
0.00050222898
0.00049945722
0.00049650856
0.00049337251
0.00049003832
0.00048649484
0.00048272916
0.000478728
0.00047447731
0.00046996149
0.00046516445
0.00046006845
0.00045465484
0.00044890381
0.00044279394
0.00043630257
0.00042940487
0.00042207301
0.0004142754
0.00040597322
0.00039711614
0.00038763457
0.00037743047
0.00036636503
0.0003542532
0.00034084207
0.00032582818
0.00030880165
0.0002893962
0.00026677433
0.00024027077
0.00020642641
0.00018002066
0.00016725154
0.00015947235
0.00015581392
0.000155773
0.00015871282
0.00016413766
0.00017182396
0.00018146624
0.00019320084
0.00020759888
0.00022528054
0.00024612571
0.00026953
0.00029546999
0.00032397249
0.00035502193
0.00038863177
0.00042453511
0.00046179005
0.00049876459
0.00053520536
0.00057231645
0.00061186615
0.00065378804
0.00069937834
0.00075016242
0.00080790682
0.00087654513
0.00096425792
0.0010800955
0.0012264472
0.001410953
0.0016368797
0.0019394111
0.002262284
0.0028833051
0.0030613509
0.005274072
0.0032159298
0.02072928
0.01460737
0.23630913
0.37771352
0.97488483
0.39842047
0.71709137
0.28563294
0.61779977
0.26920134
0.20255895
0.013449477
0.024784321
0.0020970934
0.0053772464
0.0028450296
0.0027306532
0.002074202
0.0017233018
0.0014106857
0.0011852493
0.0010154047
0.00089179599
0.00080643941
0.0007483674
0.00070806738
0.00067592824
0.00064583737
0.00061576485
0.00058315851
0.00054727868
0.00050942334
0.00047003496
0.00043033567
0.00039262685
0.00035808488
0.00032637305
0.00029695185
0.00026974112
0.00024489508
0.00022261972
0.00020329415
0.00018732653
0.00017453671
0.00016448891
0.00015696544
0.00015193198
0.0001493914
0.00014920416
0.00015162568
0.00015742469
0.00016781306
0.00018984052
0.00022324431
0.00025355083
0.00027644747
0.00028979481
0.0002948255
0.00029901122
0.00030747773
0.00031954866
0.00033273554
0.00034562921
0.00035775995
0.00036912751
0.0003799621
0.00039066489
0.00040166035
0.00041324453
0.00042530249
0.00043715389
0.00044784981
0.00045657434
0.00046303682
0.00046754249
0.00047065579
0.0004728566
0.00047448374
0.00047569969
0.00047662586
0.00047735034
0.00047793435
0.00047842029
0.00047883675
0.0004792049
0.00047953712
0.00047984344
0.00048012534
0.00048038459
0.00048062669
0.00048085177
0.00048105911
0.000481245
0.00048140442
0.00048152648
0.00048162164
0.00048166287
0.00048168713
0.00048168993
0.00048166659
0.00048161252
0.00048152406
0.00048139653
0.00048122588
0.00048100894
0.00048074152
0.00048042043
0.00048004448
0.00047960867
0.00047910937
0.00047854512
0.00047791266
0.00047720914
0.00047643261
0.00047557975
0.00047464765
0.00047363378
0.00047253482
0.00047134774
0.00047006882
0.00046869436
0.00046722099
0.00046564382
0.00046395813
0.00046215947
0.00046024177
0.00045819904
0.00045602547
0.00045371341
0.00045125523
0.0004486433
0.0004458682
0.00044292047
0.00043979053
0.00043646691
0.00043293807
0.00042919204
0.00042521525
0.00042099401
0.00041651339
0.00041175771
0.00040671067
0.00040135489
0.00039567215
0.00038964281
0.00038324478
0.00037645272
0.00036923411
0.00036154445
0.00035331806
0.00034445759
0.00033481983
0.00032420937
0.0003123572
0.00029893982
0.00028354041
0.00026579663
0.0002449961
0.00022061311
0.00019046529
0.00016712948
0.00015538061
0.00014792252
0.00014424968
0.00014407468
0.00014681688
0.00015194609
0.00015919513
0.00016825964
0.00017922909
0.00019259148
0.00020885958
0.00022798864
0.00024945678
0.00027323276
0.00029933177
0.00032773662
0.00035845598
0.00039127015
0.00042538911
0.00045941522
0.00049306454
0.00052731204
0.00056370287
0.00060226275
0.00064408724
0.00069049901
0.00074302753
0.00080492886
0.00088300417
0.000984982
0.0011130364
0.0012730162
0.0014671707
0.0017222515
0.0019948124
0.0024938053
0.0026771154
0.0043590112
0.0030679255
0.016083862
0.013168402
0.17208182
0.27567614
0.66179692
0.29218211
0.48563732
0.21095002
0.42241271
0.19966026
0.15176457
0.012122794
0.020827069
0.0020409115
0.0047913245
0.0026376146
0.0025109958
0.0019163723
0.0015840526
0.0012908563
0.0010787894
0.0009209147
0.00080764232
0.00073091326
0.00068053029
0.00064801577
0.00062350534
0.0005999916
0.00057538583
0.00054704901
0.00051430714
0.00047879649
0.00044146902
0.00040387263
0.00036832482
0.00033593343
0.00030624787
0.00027861691
0.0002529284
0.00022936882
0.00020816632
0.00018967304
0.00017428024
0.00016191666
0.00015225774
0.00014512129
0.00014047047
0.00013828479
0.00013836055
0.00014082103
0.00014626327
0.00015564567
0.00017489184
0.00020524723
0.00023419694
0.0002557109
0.00026669869
0.00026823351
0.00026923319
0.0002756125
0.0002864905
0.00029894634
0.00031131004
0.00032300143
0.00033399572
0.00034454685
0.00035511364
0.00036618556
0.0003781285
0.0003907765
0.00040328159
0.00041446259
0.0004233047
0.00042945684
0.00043331599
0.00043558495
0.0004369035
0.00043763683
0.00043796591
0.0004380306
0.00043793026
0.00043773232
0.00043748184
0.00043720833
0.00043693201
0.00043666436
0.00043641322
0.00043617955
0.00043596413
0.00043576956
0.00043559375
0.00043543305
0.00043528137
0.00043513111
0.00043497156
0.00043480358
0.00043461077
0.00043442949
0.00043424909
0.0004340634
0.00043386654
0.00043365357
0.00043341872
0.00043315702
0.00043286446
0.00043253621
0.00043216851
0.0004317591
0.00043130294
0.00043079632
0.00043023739
0.00042962268
0.00042894935
0.00042821545
0.00042741768
0.00042655331
0.00042562003
0.00042461475
0.00042353478
0.00042237679
0.00042113748
0.00041981401
0.00041840197
0.00041689722
0.00041529601
0.00041359289
0.00041178262
0.00040986025
0.00040781895
0.00040565203
0.00040335295
0.00040091337
0.00039832504
0.00039557982
0.00039266766
0.00038957869
0.00038630291
0.00038282872
0.00037914474
0.00037523878
0.00037109809
0.00036670977
0.00036206044
0.00035713632
0.0003519229
0.00034640385
0.0003405601
0.00033436554
0.00032778156
0.00032074642
0.0003131634
0.00030488458
0.00029570333
0.000285333
0.00027342844
0.00025956372
0.00024338526
0.00022430646
0.00020197097
0.00017527109
0.00015474156
0.00014389606
0.00013667964
0.00013294842
0.00013261447
0.00013514343
0.00013996757
0.00014677688
0.00015526517
0.0001654748
0.00017780041
0.00019266552
0.00021010463
0.00022967043
0.000251324
0.00027506997
0.00030089016
0.00032879032
0.00035859803
0.00038966904
0.00042082316
0.00045174599
0.00048319431
0.00051650389
0.00055177538
0.00058991725
0.00063205616
0.00067948833
0.00073482566
0.00080358262
0.00089227461
0.0010028616
0.0011396246
0.0013038863
0.001515233
0.0017408466
0.0021333883
0.0023107128
0.0035628887
0.0028401099
0.012347985
0.011614612
0.12516193
0.20253842
0.45724527
0.21672671
0.33328449
0.15705652
0.29203782
0.1492276
0.11407526
0.010825612
0.017421951
0.0019673985
0.00425272
0.0024355566
0.0023025148
0.001765435
0.0014507227
0.0011754864
0.00097585934
0.00082909522
0.00072553581
0.00065695869
0.00061389153
0.00058890179
0.00057198466
0.00055506277
0.00053595032
0.00051194402
0.00048237675
0.00044919209
0.00041383867
0.00037820926
0.00034467479
0.00031429953
0.00028652936
0.00026059912
0.00023635584
0.00021401238
0.00019382144
0.00017611813
0.00016128298
0.0001493383
0.00014005964
0.00013330398
0.00012903957
0.00012723238
0.00012763963
0.00013024422
0.00013547777
0.00014405157
0.00016090062
0.00018842733
0.00021598637
0.00023622869
0.00024499061
0.00024314927
0.00024109586
0.00024547179
0.00025518584
0.00026693559
0.00027881153
0.00029012441
0.0003008217
0.00031117881
0.00032170983
0.00033296659
0.00034540533
0.00035877483
0.00037204411
0.00038377203
0.00039272843
0.00039851353
0.00040164394
0.00040301898
0.00040342934
0.00040324969
0.00040268155
0.00040188219
0.0004009608
0.00039998967
0.00039901542
0.00039806747
0.00039716442
0.00039631614
0.000395528
0.00039479976
0.0003941305
0.00039351975
0.00039296287
0.00039245319
0.00039198215
0.00039153968
0.00039111395
0.00039069816
0.00039029142
0.00038992083
0.00038957196
0.00038923711
0.00038890915
0.00038858193
0.00038824864
0.00038790343
0.00038754154
0.00038715749
0.00038674695
0.00038630683
0.00038583199
0.00038531865
0.00038476458
0.0003841662
0.00038352064
0.00038282595
0.0003820789
0.00038127692
0.00038041792
0.00037949905
0.00037851792
0.00037747156
0.00037635708
0.00037517209
0.00037391267
0.00037257521
0.0003711566
0.00036965199
0.00036805684
0.00036636699
0.00036457637
0.00036267919
0.00036066993
0.00035854124
0.00035628606
0.00035389758
0.00035136711
0.00034868638
0.00034584725
0.00034284003
0.00033965558
0.00033628435
0.00033271643
0.00032894228
0.00032495243
0.00032073748
0.00031628804
0.00031159354
0.00030664123
0.00030141145
0.00029587164
0.00028996421
0.00028359317
0.00027660582
0.00026878383
0.00025982154
0.00024935061
0.00023693389
0.00022223237
0.00020478316
0.00018442126
0.00016090421
0.00014289891
0.00013283366
0.00012578278
0.00012195448
0.00012143974
0.00012374015
0.0001282491
0.00013461612
0.00014253077
0.00015198867
0.00016327454
0.00017675776
0.00019254161
0.00021024811
0.00022983114
0.00025128585
0.00027459374
0.00029975935
0.00032665661
0.00035477899
0.00038314582
0.00041141476
0.00044013886
0.00047045858
0.00050253121
0.00053709374
0.00057508536
0.0006175757
0.00066657539
0.00072641933
0.00080252255
0.00089663185
0.0010116961
0.0011482236
0.0013198989
0.001502459
0.0018040775
0.0019664254
0.002880074
0.0025544986
0.0093918478
0.010030385
0.090901844
0.14968297
0.32116031
0.16279081
0.23143407
0.11792517
0.20385198
0.11240607
0.086014158
0.0095892035
0.014503018
0.0018796693
0.0037600596
0.0022396227
0.0021053327
0.001621724
0.001323593
0.0010649081
0.00087684284
0.00074036078
0.00064591732
0.0005849861
0.00054878935
0.00053095459
0.00052151085
0.00051112687
0.00049750357
0.0004778842
0.00045154052
0.00042067933
0.00038722436
0.00035342708
0.00032175042
0.00029324448
0.00026726683
0.00024293899
0.00022005846
0.00019885757
0.00017961534
0.00016265967
0.00014836634
0.00013683563
0.00012792979
0.0001215454
0.00011766172
0.0001162413
0.00011703145
0.00011987286
0.00012504011
0.0001330081
0.00014785073
0.00017278813
0.00019893198
0.00021801468
0.00022471561
0.00021967958
0.00021475452
0.00021721773
0.00022577444
0.00023681297
0.00024821624
0.00025919073
0.00026965311
0.00027989718
0.00029048795
0.00030204886
0.00031511082
0.0003293267
0.00034345336
0.00035575823
0.00036478197
0.00037009879
0.00037238749
0.00037282259
0.00037229589
0.00037118496
0.00036971309
0.00036805282
0.00036632104
0.00036459306
0.00036291561
0.00036131675
0.00035981263
0.00035841067
0.00035711334
0.0003559185
0.00035482278
0.00035382242
0.00035290994
0.00035207559
0.00035130826
0.00035059545
0.00034992355
0.00034927797
0.00034868353
0.00034814286
0.00034764284
0.00034717434
0.00034672906
0.00034629969
0.00034587849
0.00034545884
0.00034503523
0.00034460164
0.00034415323
0.00034368621
0.00034319538
0.00034267687
0.00034212814
0.00034154552
0.00034092618
0.00034026814
0.0003395683
0.00033882423
0.00033803404
0.00033719511
0.00033630538
0.00033536218
0.00033436304
0.00033330596
0.00033218748
0.00033100453
0.0003297545
0.00032843317
0.00032703665
0.00032556145
0.00032400227
0.00032235416
0.0003206125
0.00031877094
0.00031682349
0.00031476458
0.00031258685
0.00031028356
0.00030784828
0.0003052732
0.00030255133
0.00029967562
0.00029663896
0.00029343507
0.00029005827
0.00028650353
0.00028276647
0.00027884226
0.00027472453
0.00027040018
0.00026584289
0.00026099959
0.00025577543
0.00025001324
0.00024348286
0.00023585868
0.00022674777
0.00021569952
0.00020239631
0.00018649205
0.00016802543
0.0001474123
0.00013163797
0.00012222762
0.00011527398
0.00011131777
0.0001106047
0.00011266172
0.00011684446
0.00012276609
0.00013011031
0.00013882471
0.0001490694
0.00016120208
0.00017537422
0.00019127394
0.00020884872
0.00022808546
0.00024896582
0.00027149474
0.00029559055
0.00032087449
0.0003465466
0.00037224162
0.00039832659
0.00042576093
0.00045474012
0.00048584656
0.00051984262
0.00055758093
0.00060052249
0.00065194157
0.00071626829
0.00079503873
0.00089010818
0.0010013033
0.001137617
0.0012814724
0.0015071329
0.0016482577
0.0023021542
0.0022346891
0.0070860608
0.0084886675
0.065912308
0.11117985
0.22907818
0.12393976
0.16262181
0.089381255
0.14348377
0.085345883
0.065074956
0.0084341197
0.012011039
0.00178086
0.0033115128
0.0020506952
0.0019196005
0.0014853667
0.0012028483
0.00095939043
0.00078209225
0.000655151
0.00056925746
0.00051545126
0.00048561148
0.00047444063
0.00047224097
0.00046825732
0.00046007937
0.00044489382
0.00042183475
0.00039331373
0.00036169794
0.0003296042
0.00029962594
0.0002728327
0.0002485142
0.00022568287
0.00020407871
0.00018394584
0.00016559067
0.00014934292
0.00013557894
0.00012446141
0.00011592389
0.00010989914
0.00010638075
0.00010533766
0.00010653796
0.00010968798
0.00011491629
0.00012247621
0.00013569645
0.00015830438
0.00018302703
0.00020106225
0.00020590365
0.00019792772
0.00019036499
0.00019101329
0.00019839738
0.00020868834
0.00021960426
0.00023025637
0.00024052854
0.00025072918
0.00026146804
0.00027345254
0.00028726298
0.00030243997
0.00031749364
0.0003303649
0.00033935594
0.00034405049
0.00034537191
0.0003448256
0.00034333313
0.0003412769
0.00033890158
0.00033639183
0.00033386941
0.00033141036
0.00032905973
0.00032684281
0.00032477227
0.00032285217
0.00032108154
0.00031945553
0.00031796768
0.00031661071
0.00031537402
0.00031424477
0.00031320927
0.00031225265
0.00031135955
0.00031051243
0.00030975463
0.0003090658
0.00030843436
0.00030784986
0.00030730292
0.00030678519
0.00030628814
0.00030580447
0.00030532804
0.00030485233
0.0003043721
0.00030388302
0.00030337985
0.00030285865
0.00030231663
0.00030175012
0.00030115631
0.00030053324
0.00029987791
0.00029918812
0.00029846211
0.00029769754
0.00029689259
0.00029604495
0.0002951525
0.00029421359
0.00029322522
0.0002921848
0.00029109019
0.00028993773
0.00028872416
0.00028744659
0.00028610044
0.00028468153
0.00028318608
0.00028160866
0.00027994432
0.00027818862
0.00027633548
0.00027437957
0.0002723161
0.00027013906
0.00026784349
0.00026542474
0.0002628784
0.00026020132
0.00025739152
0.0002544482
0.00025137194