/*--------------------------------*- C++ -*----------------------------------*\
| =========                 |                                                 |
| \\      /  F ield         | OpenFOAM: The Open Source CFD Toolbox           |
|  \\    /   O peration     | Version:  2.4.0                                 |
|   \\  /    A nd           | Web:      www.OpenFOAM.org                      |
|    \\/     M anipulation  |                                                 |
\*---------------------------------------------------------------------------*/
FoamFile
{
    version     2.0;
    format      ascii;
    class       volScalarField;
    location    "70";
    object      f;
}
// * * * * * * * * * * * * * * * * * * * * * * * * * * * * * * * * * * * * * //

dimensions      [0 0 -1 0 0 0 0];

internalField   nonuniform List<scalar> 
32000
(
0.18868473
0.073684714
0.1177678
0.041160592
0.021909088
0.010467469
0.0072318698
0.003793882
0.0059334008
0.0063808956
0.0063035221
0.0024747924
0.0059229636
0.012039023
0.01636807
0.017673241
0.016203518
0.0129561
0.0087755119
0.0047880134
0.0020016569
0.00094966438
0.0017465316
0.0019376571
0.0019308751
0.0020035039
0.0022507746
0.0026728003
0.0032417832
0.0038859429
0.0045411289
0.005214036
0.0059555434
0.0067968725
0.0077493075
0.0088258015
0.010015776
0.011229218
0.012327859
0.013170464
0.013596769
0.013472793
0.012786655
0.011556431
0.0100766
0.0084996051
0.0076492844
0.0062043277
0.0040182629
0.0030919207
0.0024842452
0.002108629
0.0023908534
0.0034887914
0.0047436383
0.0057426034
0.0064207343
0.0068760504
0.0071888847
0.0074269556
0.0076299595
0.0078219778
0.0079837694
0.0080465681
0.007918908
0.007504465
0.0067367655
0.0056057306
0.0041757418
0.0025608421
0.00091865534
0.0025380617
0.0041439852
0.0056907703
0.0071527239
0.0085143989
0.0097673723
0.010908016
0.011936139
0.012853653
0.01366406
0.014371745
0.014981665
0.015499328
0.015931056
0.016283297
0.016562443
0.016775039
0.016927112
0.017024733
0.017073501
0.017077857
0.01704143
0.016968831
0.016863948
0.01673057
0.016572441
0.01639252
0.016193606
0.015978618
0.015749583
0.015508536
0.015257657
0.014998307
0.014731829
0.014459794
0.014183045
0.01390244
0.013619108
0.013333523
0.013046276
0.012757991
0.012468938
0.012179694
0.011890464
0.011601375
0.011312991
0.011025327
0.010738484
0.010452907
0.010168592
0.0098855925
0.0096043336
0.0093247966
0.0090470251
0.0087714024
0.0084979331
0.0082266514
0.0079579593
0.0076918522
0.0074284473
0.0071681101
0.0069109439
0.0066572106
0.0064072913
0.006161511
0.0059204287
0.0056847594
0.0054554044
0.0052336559
0.0050211451
0.0048200779
0.0046329126
0.0044628047
0.0043121824
0.0041834439
0.0040758963
0.0039883316
0.0039144663
0.0038512001
0.0037857179
0.0037103722
0.003638089
0.0035350544
0.0035496102
0.0036858156
0.0036481521
0.0033452416
0.0028878931
0.0024109705
0.0019786077
0.0015956024
0.0012505745
0.00092419248
0.00059819484
0.00031155141
0.00068950041
0.001105906
0.0015592218
0.0020511806
0.002585674
0.0031609218
0.003776839
0.0044078854
0.0050319776
0.0056456815
0.0063021172
0.0070272795
0.0078084583
0.0086807804
0.0096720689
0.010835992
0.012236233
0.014111297
0.016576385
0.019548512
0.023119597
0.027442831
0.032830316
0.039170948
0.047779414
0.054063653
0.067039289
0.050121321
0.069877784
0.038966507
0.060105145
0.038276273
0.13101951
0.086819676
0.44836323
0.15360339
0.27359248
0.090394997
0.057382944
0.023530878
0.019253387
0.010719162
0.01163092
0.010784977
0.0099490885
0.0055130174
0.0083983789
0.014123797
0.018206906
0.019350569
0.017763737
0.014424596
0.010178052
0.0061502619
0.0033461275
0.002298115
0.0031085832
0.0033474375
0.0033753921
0.0034505216
0.0036613922
0.0040143204
0.0044963923
0.0050509287
0.0056228583
0.0062219908
0.0069002563
0.0076900172
0.0086030248
0.009651579
0.010823763
0.012028444
0.013126305
0.013975782
0.014417319
0.014318475
0.013667876
0.012486672
0.011067166
0.009571309
0.0088137168
0.0075140655
0.0055031872
0.0046918437
0.0041320328
0.0037364831
0.0039755717
0.0050384259
0.0062882617
0.0073137447
0.0080448077
0.0085749447
0.0089826415
0.0093318115
0.00965332
0.0099555329
0.010200091
0.01030262
0.010165855
0.009700568
0.0088561011
0.0076394207
0.0061271532
0.0044416515
0.0027601418
0.0042672407
0.0057924009
0.0072714685
0.0086754072
0.0099870837
0.011196854
0.01230011
0.013295841
0.014185276
0.014971341
0.015657929
0.016249583
0.016751455
0.017169539
0.017509997
0.01777898
0.017982805
0.01812742
0.018218483
0.018261654
0.01826118
0.018220596
0.018144396
0.018036384
0.017900272
0.017739725
0.017557651
0.0173568
0.01714007
0.016909372
0.016666719
0.016414319
0.016153486
0.015885537
0.015612013
0.015333749
0.01505159
0.014766642
0.014479374
0.014190367
0.013900232
0.013609236
0.013317943
0.013026556
0.012735197
0.012444415
0.012154229
0.011864733
0.011576361
0.011289108
0.011003027
0.010718529
0.010435598
0.010154277
0.0098749408
0.0095975997
0.0093222938
0.0090494231
0.0087790001
0.0085111589
0.0082462821
0.0079845096
0.0077261459
0.0074716286
0.0072213637
0.0069760121
0.0067364217
0.0065036642
0.006279241
0.0060650379
0.0058635403
0.0056774991
0.0055102944
0.0053644582
0.0052421789
0.0051421499
0.0050617202
0.0049923135
0.0049271269
0.0048498971
0.0047495165
0.0046353835
0.0044697597
0.0044133152
0.0044797763
0.0043786526
0.0040261768
0.0035340031
0.0030331376
0.0025838402
0.0021885446
0.0018337697
0.0014989112
0.0011668468
0.0008823225
0.0012505695
0.0016614591
0.0021116399
0.0026022989
0.0031370014
0.0037139579
0.0043328785
0.0049683216
0.005597438
0.0062160274
0.0068756449
0.00760238
0.0083841162
0.009255624
0.01024491
0.011405378
0.012802164
0.014672094
0.017132393
0.020105093
0.023683507
0.028022497
0.033431995
0.039814239
0.048446311
0.054855378
0.067825078
0.051562452
0.072721645
0.043533277
0.086408817
0.084551792
0.30211792
0.17534379
0.67159527
0.22704414
0.39767622
0.13244071
0.088305279
0.037292773
0.031634901
0.018072995
0.017630503
0.015444828
0.013802899
0.0087261875
0.011017778
0.016330192
0.020153037
0.021125681
0.019414543
0.015977604
0.011660174
0.0075886998
0.0047652085
0.0037210606
0.0045461857
0.0048356951
0.0049011021
0.0049798275
0.0051531513
0.0054337248
0.0058242586
0.0062840957
0.0067678978
0.0072888717
0.0079001064
0.0086351858
0.0095063697
0.01052527
0.011678557
0.012873917
0.013970922
0.014827656
0.015285298
0.015213014
0.014600011
0.013470616
0.012114949
0.010704643
0.010044914
0.0088980444
0.0070713162
0.0063815311
0.0058718829
0.0054545364
0.0056474958
0.0066731932
0.0079177096
0.0089711601
0.0097581176
0.010367356
0.010875407
0.011342152
0.011789084
0.012207912
0.012540009
0.012684452
0.01253783
0.012018435
0.011092364
0.0097846397
0.008184873
0.0064242102
0.0046995232
0.0060888021
0.0075284396
0.0089357861
0.010278276
0.01153699
0.012700992
0.013764633
0.014726039
0.015585716
0.016345976
0.017010198
0.017582482
0.018067603
0.018471211
0.018799164
0.019057356
0.019251865
0.019388557
0.01947265
0.019509868
0.019504255
0.019459245
0.019379209
0.019267862
0.019128835
0.018965708
0.018781336
0.018578416
0.018359826
0.018127353
0.017882986
0.017628964
0.01736655
0.017097036
0.01682193
0.016542057
0.01625825
0.01597159
0.015682541
0.015391674
0.015099586
0.014806542
0.01451309
0.014219431
0.013925686
0.013632385
0.013339549
0.013047271
0.012755966
0.012465635
0.012176327
0.011888439
0.011601959
0.011316929
0.011033714
0.010752332
0.010472829
0.010195603
0.0099206853
0.0096482287
0.0093786341
0.0091120806
0.0088489181
0.0085896451
0.0083347538
0.0080850137
0.0078414141
0.0076052084
0.0073781203
0.0071623066
0.0069605503
0.0067759137
0.0066120172
0.0064715051
0.0063563471
0.006264589
0.0061920569
0.0061277465
0.0060609422
0.0059717248
0.005845335
0.0056875359
0.0054567786
0.0053259984
0.0053187821
0.0051504354
0.0047453989
0.0042162887
0.0036900407
0.0032227922
0.0028144441
0.0024492887
0.0021053899
0.0017668235
0.0014841231
0.0018420685
0.002246992
0.0026937019
0.0031828156
0.0037175579
0.0042961255
0.0049180214
0.0055579124
0.0061921613
0.0068157474
0.0074785805
0.0082068443
0.0089890399
0.0098595602
0.010846591
0.012003266
0.013396178
0.015260364
0.01771515
0.020687757
0.024272854
0.028626912
0.03405725
0.040479965
0.049130637
0.055666872
0.068604277
0.05306629
0.075402539
0.048272529
0.10811135
0.12278905
0.44015885
0.25754757
0.87542377
0.29614382
0.50195848
0.16896975
0.11560606
0.051769671
0.044418045
0.02588011
0.023951562
0.020375962
0.017877794
0.012125142
0.013789686
0.018664677
0.022211577
0.023003012
0.021160137
0.017619284
0.013226035
0.0091074755
0.0062630605
0.0052225729
0.0060634186
0.0064066748
0.0065124818
0.0065960633
0.0067307166
0.0069355398
0.0072296412
0.0075893715
0.0079798413
0.0084179659
0.0089581092
0.0096351658
0.01046195
0.011449356
0.012582556
0.013767998
0.014864073
0.015728496
0.016203201
0.016159039
0.015585869
0.014511298
0.013223261
0.011903213
0.011346832
0.010360639
0.0087274817
0.0081662323
0.007709178
0.0072680292
0.0074116815
0.0083980547
0.0096369445
0.010719902
0.01156589
0.012258765
0.012872992
0.013464184
0.014043881
0.014586134
0.015010828
0.015199486
0.015042188
0.014465198
0.013452369
0.012047849
0.010355022
0.0085143277
0.0067422507
0.0080079618
0.0093570392
0.010688419
0.011965815
0.013168419
0.014283926
0.01530559
0.016230616
0.017058749
0.017791651
0.018432155
0.018983897
0.019451249
0.019839497
0.020154179
0.020400916
0.020585534
0.020713811
0.020790496
0.020821388
0.020810313
0.020760596
0.020676479
0.020561583
0.020419451
0.020253578
0.020066756
0.019861634
0.019641063
0.0194067
0.019160509
0.018904763
0.018640668
0.018369492
0.018092708
0.017811132
0.017525581
0.017237109
0.01694618
0.016653351
0.016359204
0.016064003
0.015768279
0.01547223
0.015175977
0.014880031
0.014584414
0.014289216
0.013994838
0.013701282
0.013408595
0.013117159
0.012826966
0.012538059
0.012250792
0.01196519
0.011681307
0.01139954
0.01111994
0.010842679
0.010568179
0.01029666
0.010028521
0.0097643259
0.0095046583
0.0092504037
0.0090027022
0.008763
0.0085332578
0.0083159205
0.0081140876
0.007931153
0.0077709948
0.0076363781
0.0075290456
0.0074463597
0.0073825395
0.0073240108
0.0072559224
0.0071544796
0.0070010667
0.0067977097
0.0064991715
0.0062905502
0.0062054792
0.0059658977
0.0055051054
0.0049368088
0.0043836466
0.0038973656
0.0034751537
0.0030989436
0.0027454063
0.0023998758
0.0021186582
0.0024656487
0.002864099
0.0033069439
0.0037942086
0.0043287628
0.0049087844
0.0055335702
0.0061779064
0.0068173452
0.0074459845
0.0081120006
0.008841671
0.0096241371
0.010493389
0.01147778
0.012630161
0.014018576
0.015876134
0.018324343
0.021295807
0.024886499
0.029254416
0.034703796
0.041165002
0.049828341
0.0564925
0.0693715
0.054624119
0.077933993
0.053170001
0.126094
0.15476168
0.5575062
0.33576012
1.0701714
0.36259923
0.59393461
0.20132906
0.14006562
0.066984022
0.057649201
0.034166879
0.030615408
0.025595301
0.02218789
0.015721563
0.016723761
0.021135213
0.024389388
0.024988761
0.023006272
0.019355006
0.014880632
0.010711263
0.0078441674
0.0068070342
0.007664708
0.0080649781
0.0082143773
0.0083042633
0.0083991756
0.0085247422
0.0087172704
0.0089711689
0.0092627725
0.0096130502
0.010077768
0.010693228
0.011472849
0.01242677
0.013538586
0.014713431
0.015808453
0.016680972
0.017173714
0.017159304
0.016628346
0.015611835
0.014395517
0.013170778
0.012723639
0.011906493
0.010476827
0.01005155
0.0096496696
0.009182563
0.0092735371
0.010218322
0.011451281
0.012565381
0.013473719
0.014255034
0.014981612
0.015704544
0.0164248
0.017097707
0.017620358
0.017855658
0.017686791
0.017048477
0.015943391
0.014435949
0.01264413
0.010718195
0.0088941225
0.010030267
0.011283447
0.012534351
0.01374278
0.014885927
0.01595004
0.016927209
0.01781367
0.018608357
0.01931225
0.019927601
0.020457554
0.020906057
0.021278007
0.021578607
0.021813188
0.021987306
0.022106651
0.022175471
0.022199647
0.022182771
0.022128055
0.022039603
0.021920938
0.021775507
0.021606715
0.021417294
0.021209831
0.020987158
0.02075079
0.020502664
0.02024509
0.019979217
0.019706282
0.019427725
0.019144349
0.018856957
0.018566577
0.018273667
0.017978771
0.017682458
0.017384988
0.017086876
0.016788318
0.016489431
0.016190709
0.015892176
0.015593917
0.01529632
0.014999385
0.01470316
0.014408013
0.014113936
0.013820975
0.013529474
0.013239466
0.012951012
0.012664509
0.012380028
0.012097763
0.011818159
0.011541479
0.011268177
0.010998883
0.01073428
0.010475378
0.010223476
0.0099802252
0.0097478396
0.0095290697
0.0093273521
0.0091464338
0.0089904682
0.0088623518
0.0087635913
0.008690829
0.0086365885
0.008584576
0.0085155691
0.0084016639
0.008220171
0.0079692833
0.0076002043
0.0073100517
0.0071426876
0.0068275978
0.0063076507
0.005697779
0.0051160786
0.0046096182
0.0041726793
0.0037846937
0.0034208774
0.0030678825
0.0027877485
0.0031230938
0.003514527
0.003953081
0.0044381642
0.0049722776
0.0055535746
0.0061811472
0.0068299134
0.0074745886
0.0081083231
0.0087774675
0.0095083958
0.01029091
0.011158569
0.012139884
0.013287408
0.014670614
0.016520542
0.018960974
0.021930072
0.02552506
0.029905326
0.035371549
0.041868596
0.050537966
0.057328989
0.07012415
0.056230543
0.080336984
0.058214884
0.14108215
0.18187888
0.66225052
0.41179165
1.2625866
0.4276717
0.67846058
0.2305638
0.16233305
0.082964122
0.071379346
0.042961493
0.037645293
0.031121108
0.026748466
0.019528042
0.019830446
0.023750476
0.026693997
0.027089736
0.024959243
0.021190611
0.016629359
0.012405075
0.0095133157
0.0084791051
0.0093547525
0.0098154845
0.010011934
0.010109785
0.010163955
0.01020665
0.010292206
0.01043421
0.01062106
0.01087816
0.011262821
0.011812851
0.012542326
0.013460595
0.014549574
0.015713009
0.016806723
0.017687631
0.018199305
0.018216268
0.017730011
0.016775049
0.015634944
0.014511041
0.014179595
0.013540461
0.012324801
0.012043454
0.011699502
0.011204125
0.011238845
0.012139674
0.013366396
0.01451337
0.015487565
0.016362409
0.017207884
0.018070296
0.018939387
0.019750624
0.020376921
0.020661426
0.020480021
0.0197764
0.018573198
0.016956302
0.015059163
0.013042398
0.011161281
0.012161574
0.013313178
0.014478791
0.015614108
0.016694213
0.017703824
0.018633799
0.019479349
0.020238553
0.020911664
0.021500325
0.022007156
0.022435656
0.022790312
0.023075968
0.02329765
0.023460629
0.0235705
0.023630976
0.023648031
0.023625008
0.023564995
0.023471952
0.023349296
0.023200376
0.023028499
0.022836331
0.022626398
0.022401508
0.022163027
0.021912865
0.02165337
0.021385628
0.021110846
0.020830428
0.020545165
0.020255844
0.019963463
0.019668478
0.019371418
0.019072837
0.018772991
0.018472381
0.018171197
0.017869554
0.017567928
0.017266344
0.016964885
0.01666392
0.016363454
0.016063531
0.015764505
0.015466372
0.015169177
0.014873256
0.014578648
0.014285425
0.013993984
0.013704417
0.013416942
0.013132027
0.012849984
0.012571321
0.012296745
0.012027042
0.011763351
0.011507145
0.011260292
0.011025274
0.010805167
0.010603767
0.010425196
0.010273903
0.010152926
0.010063527
0.010001591
0.0099578528
0.0099131413
0.0098436131
0.0097170082
0.0095063304
0.0092058508
0.0087633455
0.0083877665
0.0081333866
0.0077382365
0.0071555256
0.0065015514
0.0058895982
0.0053617464
0.004909164
0.0045086337
0.004133852
0.0037728503
0.0034933377
0.0038163082
0.0042001415
0.0046339438
0.0051164831
0.0056498765
0.0062322478
0.0068624861
0.0075156537
0.0081655999
0.0088044551
0.0094766492
0.010208657
0.01099096
0.011856658
0.012834402
0.013976435
0.015353629
0.017194806
0.019626117
0.022591462
0.026189264
0.030580166
0.036060846
0.042590869
0.051259941
0.058176777
0.070867084
0.057886289
0.08264068
0.06340021
0.15368953
0.20523119
0.75964534
0.4869957
1.457515
0.49234823
0.75893771
0.25747995
0.18294103
0.099744072
0.085663946
0.052294142
0.045066529
0.036973093
0.031576047
0.023558172
0.023121077
0.026519994
0.029133761
0.029313516
0.027026013
0.023132493
0.018478058
0.014194299
0.011275623
0.010243751
0.011138547
0.011663376
0.01191062
0.012018337
0.012030851
0.011986955
0.01195987
0.01198355
0.012059374
0.012217594
0.012517222
0.01299767
0.013673717
0.014553862
0.015618218
0.016769049
0.017861265
0.018751024
0.019282775
0.019333031
0.018894281
0.018004648
0.016945544
0.015928298
0.015719383
0.015267748
0.014277205
0.014148316
0.013865239
0.013339109
0.013313783
0.014168181
0.015388359
0.016570033
0.017613788
0.01858754
0.019558851
0.020568957
0.021595675
0.0225534
0.023289383
0.023625806
0.02343082
0.022657645
0.021350082
0.019616758
0.017607518
0.015493894
0.013550162
0.014407972
0.015451904
0.01652703
0.017584748
0.018597919
0.019549644
0.020429482
0.021231562
0.021953058
0.022593457
0.023153753
0.023636012
0.024043259
0.024379545
0.024649333
0.024857324
0.025008484
0.025108317
0.025159952
0.025169473
0.025139955
0.025074352
0.024976472
0.02484962
0.024697037
0.024521931
0.024326892
0.024114385
0.023887192
0.02364652
0.023394246
0.023132764
0.022863092
0.022586405
0.022304067
0.022016858
0.021725545
0.021431101
0.021133972
0.020834676
0.020533749
0.020231446
0.019928247
0.019624342
0.019319842
0.019015203
0.018710452
0.018405668
0.018101205
0.017797068
0.0174933
0.017190239
0.016887885
0.016586285
0.016285764
0.015986371
0.015688186
0.015391608
0.015096752
0.01480386
0.014513428
0.014225818
0.013941597
0.013661552
0.013386579
0.013117959
0.012857344
0.012606836
0.0123692
0.01214786
0.011946992
0.011771118
0.011625004
0.011511842
0.011432641
0.011382487
0.011350232
0.01131366
0.011244044
0.011104504
0.010863488
0.010511267
0.0099923278
0.0095272264
0.0091808139
0.0087007478
0.0080514225
0.0073506534
0.0067066253
0.0061560956
0.0056868966
0.0052730018
0.0048865207
0.0045169232
0.0042374997
0.0045473243
0.0049229332
0.005351487
0.0058310887
0.0063634568
0.0069466794
0.007579447
0.0082369776
0.0088922219
0.0095362113
0.010211358
0.010944245
0.01172605
0.012589385
0.013563024
0.014698881
0.016069199
0.017900428
0.020321218
0.023281378
0.026880495
0.031280341
0.036773229
0.043333563
0.051996892
0.059038883
0.071608276
0.059594363
0.084877809
0.068723081
0.16442271
0.22564957
0.85334557
0.56244245
1.6586779
0.55742729
0.83787298
0.28270727
0.20232855
0.11736375
0.10056307
0.062197215
0.052906635
0.043172543
0.036688514
0.027826643
0.026607937
0.029454129
0.031717778
0.031668337
0.029214129
0.025187565
0.020433033
0.016084721
0.013136567
0.012106263
0.013021397
0.013614147
0.01391624
0.014035988
0.014006039
0.01387173
0.01372604
0.013624573
0.0135827
0.013635985
0.013845314
0.014251832
0.014871092
0.015710718
0.016748925
0.017886397
0.018977069
0.019876282
0.020429366
0.0205149
0.020126486
0.019305973
0.018332695
0.017428004
0.017348681
0.017094342
0.016340408
0.016372978
0.016153879
0.015594326
0.015504956
0.016310397
0.017523799
0.018742175
0.019859455
0.020937852
0.022042383
0.023208921
0.024402611
0.025515482
0.026367537
0.026758692
0.026548906
0.025701535
0.024282852
0.022425611
0.020297038
0.018080168
0.016067871
0.016776435
0.017706436
0.01868577
0.019661342
0.020603659
0.021494113
0.022320885
0.023076958
0.023758546
0.024364324
0.0248946
0.025350856
0.025735609
0.026052451
0.026305442
0.026498938
0.026637585
0.02672679
0.026769058
0.026770599
0.026734198
0.02666267
0.02655966
0.026428354
0.026271883
0.026093345
0.025895255
0.025680009
0.025450367
0.025207362
0.024952839
0.024689244
0.024417517
0.024138802
0.023854424
0.023565147
0.02327172
0.022975086
0.022675685
0.022374019
0.022070609
0.021765706
0.021459772
0.021152992
0.020845474
0.020537657
0.020229566
0.019921278
0.01961313
0.019305129
0.018997314
0.01869001
0.018383221
0.018076992
0.017771642
0.017467227
0.017163839
0.016861876
0.01656148
0.01626292
0.015966719
0.015673293
0.015383275
0.015097534
0.014817085
0.014543358
0.014278197
0.014023952
0.013783691
0.013561203
0.013361072
0.013188246
0.013047829
0.012943179
0.012875047
0.01283768
0.012817943
0.012790404
0.012721169
0.01256846
0.012295904
0.011889698
0.011291184
0.010732247
0.010288471
0.0097183074
0.0089982524
0.0082478091
0.007569758
0.0069951751
0.0065083176
0.0060801798
0.0056812142
0.0053023857
0.0050224491
0.0053183184
0.005685036
0.0061078011
0.0065840255
0.007115012
0.0076988324
0.0083339757
0.0089958211
0.0096563833
0.01030551
0.010983493
0.011717041
0.01249804
0.013358581
0.014327549
0.015456512
0.016819039
0.018639074
0.021047919
0.024001476
0.02760047
0.032007686
0.037510801
0.044099135
0.052752364
0.059919286
0.072356781
0.061358737
0.087081825
0.074186327
0.17369647
0.24376829
0.94603894
0.63900512
1.8674327
0.62354803
0.89937094
0.30673535
0.22086198
0.13586883
0.11614158
0.072705524
0.061195504
0.049742475
0.042105233
0.032349335
0.030304309
0.032564055
0.034455819
0.03416302
0.031531675
0.027363245
0.022501062
0.018082568
0.01510201
0.014072284
0.015008954
0.01567365
0.016034983
0.016169232
0.016096157
0.015867539
0.015597024
0.015363219
0.015196574
0.015138484
0.015251915
0.015579879
0.016138785
0.016935354
0.017945802
0.019069126
0.020158208
0.021067507
0.021643229
0.021766084
0.021430933
0.020683462
0.019801047
0.019015073
0.019072791
0.019026019
0.018520717
0.018724318
0.018572502
0.017976667
0.017819042
0.018572924
0.01977936
0.021036584
0.022231597
0.023420723
0.024666309
0.025998559
0.027369149
0.028646357
0.029621236
0.030070047
0.029844074
0.02891747
0.0273804
0.025391226
0.023135612
0.020808689
0.018721411
0.019273741
0.020083271
0.020961271
0.021849953
0.022717338
0.023543003
0.02431367
0.025021105
0.025660506
0.026229689
0.026728234
0.027157002
0.027517976
0.02781426
0.02804949
0.028227655
0.028353062
0.02843102
0.02846337
0.028456459
0.028412764
0.028334949
0.028226493
0.028090454
0.027929844
0.02774765
0.027546306
0.027328134
0.027095874
0.026850372
0.026593442
0.026327581
0.026053654
0.025772768
0.025486205
0.025194715
0.024899028
0.024600055
0.024298229
0.023994038
0.023687984
0.023380315
0.023071473
0.02276164
0.022450922
0.022139735
0.021828107
0.021516111
0.021204066
0.020891981
0.020579893
0.020268112
0.019956645
0.019645539
0.019335102
0.019025401
0.018716539
0.018408918
0.018102703
0.017798195
0.017495947
0.017196431
0.016900348
0.016608658
0.016322502
0.016043468
0.015773604
0.015515523
0.015272613
0.015049054
0.014849864
0.014680442
0.014546255
0.014450845
0.014394696
0.014371171
0.01436505
0.014347497
0.014279155
0.014113055
0.013807711
0.013345188
0.012663828
0.01200651
0.011459713
0.010793951
0.0099988147
0.0091956711
0.008481564
0.0078815012
0.0073759074
0.0069326164
0.0065203499
0.0061316237
0.0058505133
0.0061315964
0.0064887352
0.0069051596
0.0073775661
0.0079068266
0.0084909915
0.0091283533
0.009794463
0.010460355
0.011114597
0.011795258
0.012529189
0.013308985
0.014166188
0.01512976
0.01625104
0.017604832
0.0194124
0.021807878
0.024753454
0.028350974
0.032764143
0.038275811
0.044890208
0.053530065
0.060822032
0.073121538
0.063183479
0.089287017
0.07979993
0.18185116
0.26007409
1.0389244
0.71737849
1.9899517
0.68234616
0.9610661
0.32995733
0.23885169
0.15531093
0.13246936
0.083856531
0.06996558
0.056707803
0.047847189
0.037143465
0.034224668
0.035862065
0.037358741
0.036807449
0.033987723
0.029667796
0.024689569
0.020194544
0.017178234
0.016147843
0.017107233
0.017848089
0.018273405
0.018424948
0.018308243
0.017981343
0.01757948
0.017205709
0.016906742
0.016730382
0.016741897
0.016986316
0.017480987
0.0182317
0.019212558
0.020320757
0.021408036
0.022327893
0.022927397
0.023089467
0.022810394
0.022139854
0.021353435
0.020692571
0.020895206
0.0210667
0.020822505
0.021207265
0.021126288
0.020491225
0.020260991
0.020960644
0.022159926
0.023458231
0.02473538
0.026041627
0.02743653
0.028944298
0.030502282
0.031953525
0.033058298
0.033567722
0.033323912
0.032312555
0.030649245
0.028519545
0.026128669
0.023684435
0.02151525
0.02190412
0.022586335
0.023357197
0.024154029
0.024942221
0.025699428
0.026410824
0.027066884
0.02766173
0.028192267
0.028657305
0.029057047
0.029392909
0.029667482
0.02988395
0.030045919
0.030157336
0.030223399
0.030245267
0.030229417
0.030178
0.030093525
0.029979293
0.029838228
0.02967322
0.029487135
0.029282323
0.029061029
0.028825968
0.028577796
0.028318292
0.028050007
0.027773723
0.027490511
0.02720161
0.026907751
0.026609647
0.026308175
0.026003762
0.025696877
0.025388007
0.025077392
0.024765459
0.024452383
0.024138266
0.023823505
0.023508128
0.023192204
0.022876035
0.022559631
0.022243027
0.021926518
0.021610112
0.021293862
0.020978064
0.020662796
0.020348172
0.020034597
0.019722268
0.019411511
0.019102917
0.018797016
0.018494583
0.018196675
0.017904563
0.017620004
0.017345267
0.017083238
0.01683765
0.016613096
0.016415053
0.016249404
0.016122006
0.016036597
0.015993392
0.015984831
0.015993501
0.015986976
0.015920127
0.015740476
0.015401125
0.014879951
0.014112408
0.013351948
0.012696231
0.011929213
0.011054613
0.010195812
0.0094437373
0.0088169084
0.008291635
0.0078323948
0.0074061006
0.0070068746
0.0067239414
0.0069894387
0.007336326
0.0077458676
0.0082140253
0.0087412282
0.0093255019
0.0099649512
0.01063531
0.011306583
0.011965953
0.012649166
0.01338324
0.014161487
0.015014864
0.015972396
0.017085181
0.018429194
0.020222895
0.022603488
0.025539645
0.029134344
0.033552147
0.039071018
0.045710077
0.054334747
0.061753023
0.073914243
0.065078429
0.091526998
0.085575604
0.18916664
0.27491889
1.0373692
0.7753796
2.0439847
0.70373856
0.95746212
0.34915573
0.25655914
0.17574761
0.14962153
0.095690565
0.079252015
0.064095496
0.05393713
0.042227747
0.038384875
0.03936172
0.04043848
0.039612362
0.036592008
0.032110032
0.027006483
0.022427808
0.019371897
0.018339263
0.019322489
0.020143878
0.020638262
0.020810226
0.020649544
0.020220275
0.019680172
0.019158266
0.018718813
0.018416657
0.018319611
0.01847486
0.018900762
0.019602121
0.020550794
0.021642052
0.022726382
0.023656239
0.024279543
0.02448153
0.024260186
0.02366945
0.02298343
0.022453744
0.022809258
0.023209289
0.023238064
0.02381405
0.023807867
0.023131271
0.02282448
0.023467226
0.024658889
0.026000197
0.027363663
0.028793345
0.030345896
0.032039166
0.033795233
0.035430272
0.036671783
0.037244199
0.036980022
0.035877387
0.034079057
0.031799502
0.029264608
0.026695408
0.024436969
0.02465504
0.025202929
0.025860725
0.026560662
0.027265351
0.027950404
0.028599352
0.029201304
0.029749241
0.0302391
0.030668879
0.031038084
0.031347532
0.03159927
0.031796008
0.031940944
0.032037657
0.032091168
0.032102054
0.032076803
0.032017264
0.031925778
0.031805461
0.031659099
0.031489449
0.031299255
0.031090776
0.030866179
0.030628131
0.030377132
0.030114915
0.029844059
0.029565273
0.029279592
0.028988209
0.028691839
0.028391172
0.028087052
0.027779898
0.027470163
0.027158314
0.026844588
0.026529389
0.026212891
0.02589519
0.025576662
0.025257337
0.024937277
0.024616769
0.024295824
0.023974475
0.023653
0.023331412
0.023009765
0.022688348
0.022367247
0.022046592
0.021726792
0.021408071
0.021090791
0.020775577
0.020463025
0.020153987
0.019849621
0.019551341
0.019261081
0.018981341
0.018715301
0.018467055
0.018241637
0.018045011
0.017883574
0.017763603
0.017689058
0.017659887
0.017667582
0.017692445
0.017698292
0.017633922
0.017441048
0.017067045
0.016485551
0.015629024
0.014760823
0.013990664
0.013117496
0.012160034
0.01124368
0.010452794
0.0097989601
0.009254041
0.0087789263
0.0083386163
0.007928886
0.0076439026
0.0078933461
0.0082295399
0.0086318232
0.0090954243
0.0096203322
0.010204555
0.010846027
0.01152068
0.012197438
0.012861994
0.013547666
0.014281677
0.015058054
0.015907145
0.016858018
0.017961527
0.019294755
0.021073263
0.023437605
0.026363138
0.029953993
0.03437553
0.039900817
0.046563699
0.055172424
0.062718519
0.074744986
0.06705051
0.093830268
0.09152708
0.1958748
0.28859909
1.032764
0.79410029
2.0424943
0.7246857
0.95267317
0.36780378
0.27420975
0.197242
0.16767817
0.10825091
0.089092717
0.071934662
0.060399628
0.047622325
0.042801875
0.043077364
0.043707575
0.042589038
0.039354803
0.034699281
0.02946016
0.024789808
0.021689776
0.020652803
0.021660728
0.022567012
0.02313575
0.023331459
0.023126464
0.022590437
0.021904543
0.021225381
0.020636122
0.020199322
0.019985568
0.020044307
0.020394935
0.021041207
0.021952711
0.023022862
0.024100887
0.025038155
0.025683417
0.02592424
0.025760543
0.025250778
0.024667844
0.024273627
0.024787622
0.02542217
0.025731047
0.026505436
0.026578082
0.02586017
0.025474715
0.026057746
0.027239801
0.028624038
0.030076021
0.031633669
0.033350619
0.0352379
0.037201149
0.039027756
0.040410215
0.041044774
0.040754265
0.03955075
0.037606371
0.03516634
0.032478116
0.029776125
0.027421033
0.027461326
0.02786822
0.028407411
0.029005837
0.029623152
0.030232794
0.030816548
0.031362071
0.031861135
0.032308655
0.032701769
0.033039246
0.033321273
0.033549325
0.033725614
0.033852916
0.033934438
0.033974868
0.033974531
0.033939591
0.033871684
0.033772979
0.033646401
0.03349459
0.03332017
0.033125756
0.032913515
0.032685529
0.032444371
0.032190484
0.031925542
0.031652062
0.031370725
0.03108253
0.030788622
0.0304897
0.030186429
0.029879623
0.029569689
0.029257063
0.028942196
0.028625316
0.028306811
0.027986848
0.02766552
0.027343181
0.027019862
0.026695622
0.02637073
0.026045199
0.02571906
0.025392576
0.025065766
0.024738685
0.024411616
0.024084657
0.023757952
0.023431916
0.023106808
0.022783024
0.02246123
0.02214209
0.02182654
0.021515847
0.021211573
0.020915843
0.020631398
0.020361731
0.020111317
0.019885653
0.019691223
0.019534974
0.019423645
0.019361462
0.019348151
0.019374283
0.019417869
0.019438896
0.019379896
0.019176529
0.018770177
0.018130127
0.017185374
0.016207434
0.015319295
0.014337058
0.013295111
0.012320837
0.011491775
0.010812376
0.010249821
0.0097611519
0.0093092046
0.0088912652
0.0086059718
0.00884048
0.0091667466
0.0095623106
0.010021736
0.010544633
0.011129041
0.011772778
0.012452012
0.01313456
0.013804532
0.014492722
0.015226598
0.016000896
0.016845328
0.017788994
0.018882501
0.020203975
0.021965999
0.024312801
0.027226629
0.030812795
0.035237395
0.04076864
0.047454833
0.056047656
0.063723257
0.075622203
0.069106025
0.09622234
0.09766645
0.20216805
0.30136518
1.0267598
0.81223068
1.9948939
0.74539436
0.94718247
0.38571139
0.29198976
0.21986035
0.18672204
0.1215832
0.099527753
0.080256242
0.06726082
0.053348585
0.047493582
0.047024079
0.047179133
0.045749207