y,U_0,U_1,U_2
0.44812865,0,0,0
0.44889173,-0.0050381437,0.0039127153,-2.4006767e-19
0.44970062,-0.010238082,0.0079608091,-5.372991e-20
0.45055804,-0.015681774,0.012197885,6.6805846e-19
0.4514669,-0.02137333,0.016630101,3.1065807e-20
0.4524303,-0.027316394,0.021261338,-7.3147617e-19
0.4534515,-0.033512449,0.026093331,1.3782258e-20
0.45453396,-0.039958791,0.031124461,-2.7320537e-19
0.45568137,-0.046645143,0.036347329,-1.2416531e-19
0.45689761,-0.053548152,0.041744535,3.045403e-19
0.45818681,-0.060622944,0.047282307,2.448767e-19
0.45955335,-0.067792075,0.052902121,-8.424475e-20
0.46100186,-0.074934913,0.058512198,-3.1692632e-19
0.46253725,-0.08188456,0.063984137,5.7928861e-19
0.46416474,-0.088441536,0.069162916,1.8227018e-19
0.46588984,-0.094407864,0.073894698,-9.2200998e-19
0.46771841,-0.099631184,0.078063161,-7.148811e-19
0.46965663,-0.10403699,0.081614123,6.9338123e-19
0.47171109,-0.10763227,0.084555813,-1.8895185e-19
0.47388874,-0.11048337,0.08694045,-5.2016126e-19
0.47619696,-0.11268521,0.088841225,5.0909463e-19
0.47864358,-0.11433659,0.090334386,3.4344994e-19
0.48123688,-0.11552645,0.091488968,6.2177938e-20
0.48398565,-0.11632881,0.092362749,-3.4958699e-19
0.48689919,-0.11680249,0.093001922,1.4358528e-21
0.48998737,-0.11699306,0.093442465,2.8064174e-19
0.49326063,-0.11693512,0.093711951,2.3507378e-19
0.49673006,-0.1166546,0.093831294,-4.2799311e-20
0.50040738,-0.11617043,0.09381616,-2.3614655e-19
0.50430504,-0.11549607,0.093678055,-5.4720212e-21
0.50843621,-0.11464066,0.093425247,-2.4388883e-20
0.51281485,-0.11360984,0.093063454,-8.7381548e-20
0.51745575,-0.11240633,0.092596279,3.8398219e-21
0.5223746,-0.11103027,0.092025526,-2.6786636e-20
0.52758798,-0.10947947,0.091351424,-4.0053271e-20
0.5331135,-0.10774953,0.090572767,1.339725e-22
0.5389698,-0.10583383,0.08968699,9.1842563e-20
0.54517662,-0.10372344,0.088690195,-2.8628668e-22
0.55175487,-0.1014069,0.087577114,-8.4087887e-20
0.55872671,-0.098869866,0.086341039,7.2747847e-20
0.56611562,-0.096094643,0.084973688,4.2486182e-20
0.57394645,-0.093059489,0.083465034,-2.0088332e-20
0.58224554,-0.089737705,0.081803058,3.6778535e-21
0.59104077,-0.086096403,0.079973447,4.0811325e-21
0.60036169,-0.08209485,0.077959204,3.5967881e-20
0.61023957,-0.077682223,0.075740169,-7.2782913e-21
0.62070753,-0.072794621,0.073292446,-2.0201418e-20
0.63180065,-0.067350957,0.070587655,1.4625821e-20
0.64355608,-0.061246969,0.067591933,-1.0191868e-20
0.65601313,-0.054346905,0.064264747,-7.2941503e-20
0.66921344,-0.046472124,0.060557646,8.2806754e-21
0.68320109,-0.037384459,0.056413116,1.4008004e-19
0.69802271,-0.026762098,0.05176342,2.5751394e-20
0.71372771,-0.014165852,0.046528991,-8.7955959e-21
0.73036835,0.0010002826,0.040622838,-2.8004857e-20
0.74799993,0.019521723,0.03396868,-3.541501e-20
0.76668101,0.042432276,0.026505126,9.7044679e-21
0.78647352,0.071041379,0.018202077,-4.8307296e-20
0.80744298,0.10681166,0.0091276102,5.7114071e-20
0.82965874,0.15102044,-0.00047050406,2.7383699e-20
0.85319413,0.20420627,-0.010120265,-7.2634593e-20
0.87812672,0.26570204,-0.01917601,3.614233e-20
0.90453854,0.33363134,-0.026970123,-6.0946464e-20
0.93251635,0.40528557,-0.032991417,-1.3302728e-20
0.96215187,0.47730275,-0.037008457,3.9646864e-21
0.99354207,0.54583725,-0.039103844,-1.7652086e-20
1.0138311,0.58357759,-0.039430261,3.9304055e-20
1.0267912,0.60757132,-0.039617757,7.5167069e-20
1.0620087,0.66089382,-0.039018435,-2.4562589e-20
1.0993063,0.70599086,-0.037753246,-1.9587749e-20
1.1388048,0.74398137,-0.036146672,2.0576239e-22
1.1806322,0.7763713,-0.034391736,-2.3064144e-20
1.2249233,0.80459073,-0.032584428,-1.5385203e-20
1.2718207,0.82976661,-0.030768745,2.1217281e-20
1.321475,0.85272027,-0.028963328,8.7600879e-21
1.3740452,0.87404634,-0.02717167,8.2852797e-21
1.4296989,0.89418735,-0.025387094,1.6357105e-20
1.4886134,0.91346916,-0.02359715,-3.6393474e-21
1.5509756,0.93211009,-0.021787748,-4.9012621e-21
1.6169826,0.95023186,-0.019947013,-1.1519753e-20
1.6868426,0.96786886,-0.01806199,-1.4176066e-21
1.760775,0.9847613,-0.0161454,6.8692578e-21
1.8345848,1.0002232,-0.014302369,5.256689e-21
1.9041042,1.0138607,-0.012651374,-4.2681218e-21
1.9695896,1.0258085,-0.011218176,4.7878741e-21
2.0312813,1.0362777,-0.0099788127,-1.5655378e-21
2.0894046,1.0454467,-0.0089074588,7.0383159e-22
2.0951232,1.0462851,-0.0088107405,6.2830234e-22
2.1441731,1.053465,-0.0079819967,-1.4764718e-22
2.1957821,1.0604671,-0.0071849765,-1.529235e-20
2.244417,1.0665676,-0.0064996382,-6.0584012e-21
2.2902523,1.0718651,-0.005911016,5.6850742e-21
2.3334521,1.0764446,-0.005405881,1.0352002e-21
2.3741702,1.0803783,-0.0049726357,-6.928134e-21
2.4125513,1.0837272,-0.0046012161,8.5532448e-21
2.4487314,1.0865433,-0.0042828101,1.0244903e-20
2.4828384,1.0888712,-0.0040096991,-1.0289562e-20
2.5149925,1.0907479,-0.0037752865,-1.3149438e-20
2.5453067,1.0922031,-0.0035739605,5.547188e-21
2.5738875,1.0932609,-0.0034008654,8.3761598e-21
2.6008349,1.0939402,-0.0032518516,2.9995862e-21
2.6262432,1.0942558,-0.003123379,1.2534178e-21
2.650201,1.0942181,-0.003012434,-2.9428337e-21
2.6727917,1.0938343,-0.0029164596,2.6766659e-21
2.6940941,1.0931085,-0.0028332897,2.7211317e-21
2.714182,1.0920423,-0.0027610719,-3.8043926e-22
2.7331252,1.0906352,-0.0026982191,2.7129605e-22
2.7509893,1.0888847,-0.0026433746,4.2648591e-21
2.7678362,1.0867875,-0.0025953792,-2.9955119e-21
2.7837241,1.084339,-0.0025532347,-9.4133314e-22
2.7987078,1.0815344,-0.0025160538,2.8176027e-21
2.812839,1.0783685,-0.0024830327,-6.8615393e-22
2.8261666,1.0748362,-0.002453409,-2.326472e-21
2.8387363,1.0709324,-0.0024264747,-3.5954103e-23
2.8505915,1.0666519,-0.0024015721,3.3191946e-21
2.8617729,1.0619896,-0.0023780639,4.1310475e-22
2.872319,1.0569407,-0.0023553368,-3.1941758e-22
2.8822659,1.0514998,-0.0023328064,-2.6083481e-21
2.8916478,1.0456613,-0.0023099042,2.9812556e-22
2.900497,1.0394184,-0.0022860586,-9.2481871e-22
2.9088436,1.032763,-0.0022607191,-7.7000802e-21
2.9167165,1.0256848,-0.0022333949,2.4594407e-21
2.9241424,1.0181722,-0.0022036275,6.5445139e-21
2.9311469,1.0102118,-0.0021708902,-1.1743526e-21
2.9377539,1.0017882,-0.0021346411,-1.3855595e-21
2.943986,0.99288295,-0.0020944238,-1.7426881e-21
2.9498645,0.98347571,-0.0020498515,-1.6281056e-21
2.9554096,0.97354407,-0.0020006339,-4.5632093e-23
2.9606401,0.96306404,-0.0019466109,1.1617802e-21
2.965574,0.95201043,-0.0018877523,2.0030983e-21
2.970228,0.94035706,-0.001824157,5.1814659e-21
2.9746182,0.92807707,-0.0017560441,-9.3969518e-22
2.9787594,0.91514286,-0.0016837444,-3.1830823e-21
2.9826658,0.90152592,-0.0016076829,-1.6541566e-21
2.9863508,0.88719645,-0.0015283613,5.6332369e-22
2.9898268,0.87212256,-0.0014463373,2.7115706e-21
2.9931058,0.85626935,-0.001362206,-2.9779735e-21
2.996199,0.83959762,-0.0012765901,-1.8329166e-21
2.9991168,0.82206226,-0.0011901463,1.688658e-21
3.0018692,0.80361034,-0.0011035174,1.5983521e-21
3.0044657,0.78417898,-0.0010172801,4.9634943e-23
3.006915,0.76369269,-0.00093192621,-1.6167111e-22
3.0092255,0.74205986,-0.00084793154,7.5001237e-22
3.0114051,0.71916909,-0.00076587959,-7.6841358e-22
3.0134612,0.69488537,-0.00068628077,-1.8148537e-21
3.0154008,0.66904542,-0.00060938687,-2.7635594e-22
3.0172305,0.64145321,-0.00053528187,9.799163e-22
3.0189565,0.61187733,-0.00046397103,2.4529897e-22
3.0205847,0.58005387,-0.00039598831,-6.6667252e-22
3.0221207,0.54570158,-0.0003344837,8.6793336e-22
3.0235696,0.50856098,-0.00028715968,1.2563057e-21
3.0249365,0.46847068,-0.00026062225,-1.3661774e-21
3.026226,0.42548868,-0.00024438395,-1.0699753e-21
3.0274424,0.38003789,-0.00020930005,6.0108963e-23
3.0285899,0.33298481,-0.00014320471,-3.896222e-23
3.0296724,0.2855159,-7.4729255e-05,8.465205e-22
3.0306935,0.2388104,-3.5733058e-05,5.9977252e-24
3.0316569,0.19373049,-2.3728654e-05,-3.3734106e-22
3.0325656,0.15073055,-1.9318443e-05,3.0839385e-22
3.0334229,0.10995577,-1.3148059e-05,-6.5534553e-23
3.0342316,0.071384944,-6.4069061e-06,5.9021335e-23
3.0349946,0.03493059,-1.9376593e-06,1.1959591e-23
3.0357143,0,0,0
