/*--------------------------------*- C++ -*----------------------------------*\
| =========                 |                                                 |
| \\      /  F ield         | OpenFOAM: The Open Source CFD Toolbox           |
|  \\    /   O peration     | Version:  2.4.0                                 |
|   \\  /    A nd           | Web:      www.OpenFOAM.org                      |
|    \\/     M anipulation  |                                                 |
\*---------------------------------------------------------------------------*/
FoamFile
{
    version     2.0;
    format      ascii;
    class       volScalarField;
    location    "310";
    object      p;
}
// * * * * * * * * * * * * * * * * * * * * * * * * * * * * * * * * * * * * * //

dimensions      [0 2 -2 0 0 0 0];

internalField   nonuniform List<scalar> 
32000
(
-0.049430955
-0.027669167
-0.032166913
-0.029887522
-0.028158034
-0.022254529
-0.016392454
-0.012813404
-0.010959887
-0.0098757188
-0.0089995965
-0.008181876
-0.0074172867
-0.0067152317
-0.0060986859
-0.0056008419
-0.0052258279
-0.0049291584
-0.0047079438
-0.0045693769
-0.0044999983
-0.0045102891
-0.0046039527
-0.0047681235
-0.0050043658
-0.0052937188
-0.005620421
-0.0059583957
-0.0062769331
-0.0065452196
-0.0067350412
-0.0068215148
-0.0067885095
-0.0066343068
-0.0063738105
-0.0060299772
-0.0056237713
-0.0051697666
-0.0046778344
-0.004153884
-0.0036014351
-0.0030222712
-0.0024174616
-0.0017846847
-0.0011232705
-0.00042406233
0.0003152221
0.0011504485
0.0020242057
0.0029286352
0.0038453068
0.0047600372
0.0056548754
0.0065182305
0.0073400591
0.0081137112
0.0088340084
0.0094977185
0.01010252
0.010646417
0.011126744
0.01153952
0.011879064
0.012138003
0.012307528
0.012377859
0.012338761
0.012180131
0.011892621
0.011468401
0.010902005
0.010190997
0.0093366501
0.0083441243
0.0072226086
0.0059849265
0.0046471315
0.0032273605
0.001744401
0.00021538672
-0.0013469846
-0.0029364181
-0.0045541934
-0.0062099515
-0.0079214223
-0.00971248
-0.011611175
-0.013647543
-0.015850148
-0.01824359
-0.020845365
-0.023662244
-0.026685973
-0.029886974
-0.033207715
-0.036559318
-0.039815893
-0.042825562
-0.045417762
-0.047452393
-0.048849506
-0.049695786
-0.050220985
-0.050897058
-0.052070445
-0.053622678
-0.05545319
-0.057578353
-0.060090074
-0.063123287
-0.066820623
-0.071331041
-0.076767242
-0.083086708
-0.089986107
-0.096801681
-0.10248171
-0.10576138
-0.10574331
-0.10238226
-0.097296399
-0.093566713
-0.092340115
-0.092158725
-0.091890383
-0.091981546
-0.092361031
-0.093064105
-0.093926424
-0.094905145
-0.095965252
-0.097036301
-0.098013291
-0.098823112
-0.09946446
-0.10000016
-0.10051327
-0.10105889
-0.10163817
-0.10219149
-0.10260581
-0.10273433
-0.10242391
-0.10153977
-0.099977154
-0.097660172
-0.094532225
-0.090536667
-0.085600186
-0.079591532
-0.072335693
-0.063404666
-0.052630901
-0.039349574
-0.032478621
-0.027104728
-0.022917226
-0.019441069
-0.016458125
-0.013716211
-0.011183889
-0.0086915141
-0.006180255
-0.0035673423
-0.00085071655
0.0020869814
0.0055571383
0.0096747541
0.014489048
0.020023989
0.026258511
0.03314609
0.04061191
0.048583521
0.056827716
0.065065424
0.073025168
0.080615282
0.087704226
0.094180899
0.099946955
0.10491036
0.10894423
0.11193482
0.11376513
0.11383027
0.11134304
0.10587875
0.096540099
0.082336052
0.062077711
0.034665276
0.00043277323
-0.038192858
-0.069286268
-0.086776049
-0.091364256
-0.089068927
-0.079338808
-0.077015535
-0.049432592
-0.027668513
-0.03216635
-0.029883194
-0.028156907
-0.02226514
-0.016408933
-0.012827846
-0.010970087
-0.0098832449
-0.0090065229
-0.0081887506
-0.007424003
-0.0067215596
-0.0061043396
-0.0056054918
-0.0052294745
-0.0049320609
-0.0047101113
-0.00457082
-0.0045007838
-0.0045103332
-0.0046032762
-0.0047667843
-0.0050024095
-0.0052912845
-0.0056176556
-0.0059555194
-0.006274217
-0.0065429414
-0.0067334475
-0.0068207882
-0.0067887345
-0.0066354341
-0.0063756737
-0.0060323595
-0.0056264738
-0.0051726252
-0.0046807068
-0.0041566496
-0.0036039881
-0.0030245091
-0.0024192936
-0.0017860184
-0.0011240237
-0.00042412267
0.00031583546
0.0011510671
0.0020247014
0.0029290381
0.0038456196
0.0047602761
0.0056550527
0.0065183592
0.0073401496
0.0081137739
0.0088340519
0.0094977478
0.010102534
0.010646409
0.011126701
0.011539422
0.011878891
0.012137735
0.012307148
0.012377352
0.012338122
0.01217936
0.011891727
0.011467399
0.010900917
0.010189849
0.0093354731
0.0083429494
0.007221467
0.0059838472
0.0046461388
0.0032264698
0.0017436165
0.00021469969
-0.0013475914
-0.0029369702
-0.004554719
-0.0062104783
-0.007921973
-0.009713068
-0.011611806
-0.013648215
-0.015850853
-0.018244313
-0.020846086
-0.023662937
-0.026686601
-0.029887483
-0.033208031
-0.036559338
-0.039815503
-0.042824648
-0.045416242
-0.047450286
-0.048846994
-0.049693292
-0.050219115
-0.050895896
-0.052069709
-0.053622304
-0.055453247
-0.057578968
-0.060091316
-0.063125177
-0.066823125
-0.071333993
-0.076770263
-0.08308918
-0.089987244
-0.09680066
-0.10247791
-0.10575472
-0.10573469
-0.10237383
-0.097291655
-0.09356684
-0.092341311
-0.092158627
-0.091890409
-0.091982154
-0.092361885
-0.09306492
-0.093927097
-0.094905655
-0.095965519
-0.097036238
-0.098012871
-0.098822352
-0.09946335
-0.099998603
-0.10051111
-0.10105598
-0.10163451
-0.1021872
-0.10260118
-0.10272969
-0.10241961
-0.1015361
-0.099974339
-0.097658352
-0.094531488
-0.090537082
-0.085601867
-0.079594652
-0.072340845
-0.063412499
-0.05264585
-0.039367472
-0.032486283
-0.027104265
-0.022912679
-0.019433523
-0.016448313
-0.013704525
-0.011170409
-0.0086759475
-0.0061624194
-0.0035470688
-0.00082756333
0.002114903
0.0055914576
0.0097159298
0.014537316
0.020079198
0.026320139
0.033213296
0.040683701
0.048658062
0.056902399
0.065137843
0.073094032
0.080679743
0.08776325
0.094233663
0.09999266
0.10494801
0.1089727
0.1119526
0.11376869
0.11381371
0.11130191
0.10580864
0.096435401
0.082192716
0.061894914
0.034454536
0.00022253294
-0.038342931
-0.069348163
-0.086780104
-0.091348978
-0.089054403
-0.07932793
-0.077015267
-0.049433925
-0.027667459
-0.032165719
-0.02987793
-0.028155303
-0.022276359
-0.016426719
-0.012843715
-0.01098145
-0.0098916626
-0.0090142618
-0.0081964291
-0.0074315096
-0.0067286394
-0.0061106733
-0.0056107117
-0.0052335746
-0.0049353263
-0.004712558
-0.0045724595
-0.0045016887
-0.0045104128
-0.0046025537
-0.004765325
-0.0050002627
-0.0052886037
-0.0056146027
-0.0059523372
-0.0062712051
-0.0065404086
-0.0067316666
-0.0068199671
-0.0067889672
-0.0066366665
-0.0063777231
-0.006034988
-0.005629462
-0.0051757928
-0.0046838967
-0.0041597271
-0.0036068346
-0.00302701
-0.0024213473
-0.0017875217
-0.0011248838
-0.00042421483
0.00031649038
0.0011517297
0.0020252248
0.0029294558
0.0038459366
0.0047605122
0.005655222
0.006518477
0.0073402276
0.0081138239
0.0088340838
0.0094977674
0.010102541
0.010646393
0.011126647
0.011539309
0.011878696
0.012137434
0.012306721
0.012376785
0.012337406
0.012178495
0.011890723
0.011466274
0.010899696
0.010188562
0.0093341535
0.0083416327
0.0072201885
0.0059826398
0.0046450295
0.0032254765
0.0017427441
0.00021393931
-0.0013482605
-0.0029375759
-0.004555292
-0.0062110489
-0.0079225653
-0.0097136976
-0.011612479
-0.013648929
-0.015851599
-0.018245076
-0.020846847
-0.023663669
-0.026687266
-0.029888026
-0.033208372
-0.036559372
-0.0398151
-0.042823678
-0.0454146
-0.047447975
-0.048844187
-0.049690439
-0.050216878
-0.050894411
-0.052068744
-0.053621797
-0.055453247
-0.057579605
-0.060092665
-0.063127261
-0.066825903
-0.071337292
-0.076773681
-0.083092059
-0.089988747
-0.096799908
-0.10247419
-0.10574782
-0.10572543
-0.10236425
-0.097285659
-0.09356633
-0.092342413
-0.092158459
-0.091890376
-0.091982794
-0.092362831
-0.093065859
-0.093927891
-0.09490627
-0.09596587
-0.097036225
-0.098012452
-0.098821528
-0.099462092
-0.099996795
-0.10050857
-0.10105258
-0.10163024
-0.10218223
-0.10259582
-0.10272434
-0.10241468
-0.10153192
-0.099971139
-0.097656296
-0.094530678
-0.090537597
-0.085603847
-0.079598314
-0.0723469
-0.063421758
-0.052663412
-0.039388515
-0.032496161
-0.027104904
-0.022908586
-0.019425982
-0.016438186
-0.01369224
-0.011156072
-0.0086592362
-0.006143136
-0.0035250192
-0.00080224535
0.0021455938
0.0056293288
0.009761487
0.014590815
0.020140459
0.026388574
0.033287971
0.040763491
0.048740903
0.056985371
0.065218274
0.073170491
0.080751298
0.087828748
0.094292185
0.10004332
0.10498969
0.10900414
0.11197208
0.11377227
0.11379483
0.11125563
0.10573006
0.096318337
0.082032801
0.0616916
0.034221234
-8.1054659e-06
-0.038504202
-0.069410675
-0.086779911
-0.091329179
-0.089036886
-0.079314868
-0.077014814
-0.049434529
-0.027666328
-0.032164601
-0.029872476
-0.028153665
-0.022287575
-0.01644433
-0.012859553
-0.010992932
-0.0099002293
-0.0090221567
-0.0082042686
-0.0074391795
-0.0067358786
-0.0061171522
-0.0056160579
-0.0052377794
-0.004938674
-0.0047150676
-0.0045741444
-0.0045026215
-0.0045105037
-0.0046018255
-0.004763844
-0.0049980803
-0.0052858762
-0.0056114965
-0.0059490998
-0.0062681425
-0.0065378362
-0.0067298638
-0.006819146
-0.0067892229
-0.0066379423
-0.0063798326
-0.0060376893
-0.0056325327
-0.0051790496
-0.0046871798
-0.0041628989
-0.0036097732
-0.0030295979
-0.0024234796
-0.0017890923
-0.0011257989
-0.00042434786
0.00031712576
0.0011523814
0.0020257424
0.0029298701
0.0038462542
0.0047607534
0.0056554004
0.0065186069
0.0073403201
0.0081138904
0.0088341338
0.0094978063
0.010102567
0.010646399
0.011126617
0.011539221
0.011878526
0.01213716
0.012306321
0.012376245
0.012336718
0.012177659
0.011889747
0.011465176
0.010898499
0.010187297
0.0093328538
0.0083403327
0.0072189227
0.0059814407
0.0046439242
0.0032244831
0.0017418685
0.0002131742
-0.0013489337
-0.0029381826
-0.0045558606
-0.0062116072
-0.007923136
-0.0097142947
-0.011613108
-0.013649589
-0.015852281
-0.018245769
-0.020847535
-0.023664331
-0.026687872
-0.029888533
-0.033208711
-0.036559449
-0.039814794
-0.04282286
-0.045413151
-0.047445863
-0.048841531
-0.04968762
-0.05021451
-0.050892696
-0.052067578
-0.053621148
-0.055453118
-0.0575801
-0.060093841
-0.063129141
-0.066828447
-0.071340344
-0.076776892
-0.083094864
-0.08999043
-0.096799716
-0.10247146
-0.10574219
-0.10571735
-0.10235512
-0.097279059
-0.093564883
-0.092343069
-0.092158179
-0.091890257
-0.091983319
-0.092363695
-0.093066758
-0.09392867
-0.09490688
-0.095966237
-0.097036257
-0.098012092
-0.098820751
-0.099460839
-0.09999494
-0.10050595
-0.10104906
-0.10162584
-0.10217716
-0.10259042
-0.10271903
-0.10240985
-0.1015279
-0.099968171
-0.097654527
-0.094530209
-0.09053852
-0.085606324
-0.079602615
-0.072353794
-0.063432307
-0.052682713
-0.039412121
-0.032508385
-0.027107669
-0.022906242
-0.019419957
-0.016429384
-0.013681124
-0.01114277
-0.008643429
-0.006124618
-0.0035035911
-0.0007773981
0.0021760104
0.0056671943
0.0098073132
0.01464488
0.020202588
0.026458156
0.03336404
0.040844877
0.048825457
0.057070076
0.065300385
0.073248558
0.080824364
0.087895634
0.094351955
0.10009506
0.10503226
0.10903625
0.11199195
0.11377588
0.11377551
0.11120832
0.10564984
0.096199014
0.081870204
0.061485755
0.033986855
-0.00023625725
-0.038657395
-0.069462372
-0.086771003
-0.091304501
-0.089017023
-0.079301187
-0.077013642
-0.049434385
-0.027665184
-0.032162658
-0.029866642
-0.028151898
-0.022299222
-0.016462287
-0.012875758
-0.011004816
-0.0099091665
-0.0090304251
-0.0082124908
-0.0074472319
-0.0067434835
-0.0061239598
-0.0056216805
-0.0052422057
-0.0049421958
-0.0047177066
-0.0045759159
-0.0045035994
-0.0045105968
-0.0046010571
-0.0047622839
-0.0049957841
-0.0052830087
-0.0056082343
-0.0059457041
-0.0062649348
-0.0065351486
-0.0067279907
-0.00681831
-0.0067895216
-0.0066393136
-0.0063820795
-0.0060405585
-0.0056357917
-0.0051825069
-0.0046906679
-0.0041662728
-0.0036129046
-0.0030323624
-0.0024257662
-0.0017907894
-0.0011268063
-0.00042453508
0.0003177569
0.0011530406
0.0020262726
0.002930298
0.0038465888
0.0047610156
0.0056556032
0.0065187636
0.0073404407
0.0081139862
0.008834214
0.0094978761
0.010102626
0.010646437
0.011126618
0.011539165
0.011878388
0.012136916
0.01230595
0.012375732
0.012336053
0.012176843
0.011888788
0.01146409
0.010897312
0.010186037
0.0093315533
0.008339027
0.0072176465
0.0059802265
0.0046427997
0.0032234672
0.0017409682
0.00021238428
-0.0013496294
-0.002938807
-0.0045564395
-0.0062121661
-0.0079236956
-0.009714868
-0.0116137
-0.013650199
-0.015852903
-0.018246394
-0.020848153
-0.023664927
-0.026688426
-0.029889011
-0.033209059
-0.036559584
-0.039814605
-0.042822218
-0.04541192
-0.04744397
-0.04883903
-0.049684813
-0.050211963
-0.050890689
-0.052066158
-0.05362032
-0.055452833
-0.057580428
-0.060094827
-0.063130804
-0.06683075
-0.071343154
-0.076779919
-0.083097637
-0.089992368
-0.096800206
-0.10246991
-0.10573806
-0.10571072
-0.10234658
-0.097271823
-0.09356235
-0.092343204
-0.092157756
-0.091890043
-0.091983713
-0.092364472
-0.093067619
-0.093929438
-0.094907487
-0.09596662
-0.097036333
-0.098011792
-0.098820014
-0.099459579
-0.099993013
-0.10050319
-0.10104536
-0.10162127
-0.10217195
-0.10258496
-0.10271374
-0.10240514
-0.1015241
-0.099965501
-0.097653141
-0.094530211
-0.090540017
-0.08560951
-0.079607836
-0.072361908
-0.063444793
-0.052704895
-0.039440631
-0.032524648
-0.02711385
-0.022906651
-0.019416245
-0.016422535
-0.013671676
-0.011130878
-0.0086287754
-0.0061069828
-0.0034827654
-0.00075283628
0.002206599
0.0057057909
0.0098544748
0.014700897
0.020267266
0.026530853
0.033443722
0.04093029
0.048914275
0.057159078
0.065386662
0.073330608
0.08090117
0.087965962
0.094414817
0.1001495
0.10507706
0.10907005
0.11201285
0.11377971
0.11375528
0.11115867
0.10556571
0.096074105
0.081700515
0.061272105
0.033746115
-0.00046556493
-0.038801826
-0.069498806
-0.086748359
-0.091271513
-0.088992926
-0.079286429
-0.07701139
-0.049433451
-0.027663998
-0.032159598
-0.029860152
-0.028149766
-0.022311374
-0.016480731
-0.012892432
-0.011017189
-0.0099185534
-0.0090391503
-0.0082211841
-0.007455756
-0.0067515401
-0.0061311735
-0.0056276434
-0.0052469043
-0.0049459319
-0.0047205039
-0.0045777918
-0.0045046301
-0.0045106879
-0.0046002335
-0.0047606201
-0.0049933408
-0.005279962
-0.0056047733
-0.0059421068
-0.0062615427
-0.0065323146
-0.0067260273
-0.0068174526
-0.0067898714
-0.0066408015
-0.0063844955
-0.0060436353
-0.0056392841
-0.0051862133
-0.0046944109
-0.004169899
-0.0036162767
-0.0030353478
-0.0024282457
-0.0017926447
-0.0011279293
-0.00042478952
0.00031838475
0.0011537102
0.0020268176
0.0029307414
0.0038469424
0.0047613009
0.0056558332
0.0065189499
0.0073405922
0.0081141142
0.0088343276
0.0094979803
0.010102719
0.010646511
0.011126656
0.011539144
0.011878285
0.012136705
0.012305611
0.012375246
0.012335413
0.012176046
0.011887842
0.011463013
0.010896127
0.010184773
0.0093302438
0.0083377065
0.00721635
0.0059789873
0.0046416459
0.0032224188
0.0017400342
0.0002115614
-0.0013503545
-0.0029394544
-0.0045570323
-0.0062127273
-0.0079242438
-0.0097154151
-0.011614251
-0.013650754
-0.015853458
-0.018246944
-0.020848691
-0.023665448
-0.02668892
-0.029889459
-0.03320942
-0.036559791
-0.039814558
-0.042821785
-0.045410946
-0.047442333
-0.048836709
-0.049682018
-0.050209201
-0.050888336
-0.052064439
-0.053619281
-0.055452364
-0.057580568
-0.060095605
-0.063132241
-0.066832816
-0.07134574
-0.076782805
-0.083100456
-0.089994682
-0.096801559
-0.10246979
-0.10573579
-0.10570592
-0.10233893
-0.097263991
-0.093558568
-0.09234273
-0.092157165
-0.091889722
-0.091983967
-0.09236516
-0.093068447
-0.093930201
-0.094908096
-0.095967027
-0.097036465
-0.098011561
-0.098819324
-0.099458306
-0.099990998
-0.10050027
-0.10104147
-0.10161651
-0.1021666
-0.10257942
-0.10270849
-0.10240059
-0.10152057
-0.099963214
-0.097652236
-0.094530796
-0.09054222
-0.085613561
-0.079614181
-0.07237152
-0.063459769
-0.052731046
-0.039476405
-0.032546903
-0.027125062
-0.022911198
-0.019416054
-0.016418705
-0.013664854
-0.011121247
-0.0086160278
-0.0060908819
-0.0034630912
-0.00072898284
0.0022371048
0.005745056
0.0099031029
0.014759182
0.020334999
0.026607339
0.033527845
0.041020676
0.049008365
0.057253385
0.065478077
0.073417568
0.080982588
0.08804053
0.094481488
0.10020725
0.10512462
0.10910591
0.11203504
0.11378379
0.11373387
0.11110609
0.1054767
0.095942232
0.081522037
0.061048922
0.033497932
-0.00069527056
-0.038933382
-0.069513609
-0.086705982
-0.091226213
-0.088962459
-0.079269961
-0.077007713
-0.049431685
-0.027662727
-0.032155043
-0.029852733
-0.028146982
-0.022323987
-0.016499656
-0.012909481
-0.01103002
-0.0099283842
-0.00904834
-0.0082303633
-0.0074647708
-0.006760068
-0.006138812
-0.0056339625
-0.0052518883
-0.0049498923
-0.0047234661
-0.0045797755
-0.0045057129
-0.0045107727
-0.0045993469
-0.004758842
-0.0049907376
-0.0052767221
-0.0056010997
-0.0059382952
-0.0062579557
-0.0065293269
-0.0067239711
-0.0068165764
-0.0067902794
-0.0066424169
-0.0063870944
-0.006046936
-0.0056430286
-0.0051901891
-0.0046984312
-0.0041738004
-0.0036199127
-0.0030385767
-0.0024309395
-0.0017946775
-0.0011291847
-0.00042512444
0.00031900281
0.0011543857
0.0020273742
0.0029311975
0.0038473131
0.0047616088
0.0056560912
0.0065191675
0.0073407765
0.0081142771
0.0088344779
0.0094981226
0.010102852
0.010646625
0.011126735
0.011539166
0.011878224
0.012136536
0.012305311
0.012374798
0.012334805
0.012175276
0.011886919
0.011461952
0.010894951
0.010183512
0.0093289305
0.0083363756
0.0072150364
0.0059777246
0.0046404632
0.0032213374
0.0017390649
0.00021070403
-0.00135111
-0.0029401246
-0.0045576368
-0.0062132861
-0.0079247732
-0.0097159258
-0.011614748
-0.013651238
-0.015853928
-0.018247399
-0.020849132
-0.023665877
-0.026689341
-0.029889869
-0.033209798
-0.036560087
-0.039814685
-0.042821615
-0.0454103
-0.047441031
-0.04883464
-0.049679275
-0.050206213
-0.050885595
-0.052062379
-0.053618004
-0.055451684
-0.057580487
-0.060096142
-0.06313342
-0.066834619
-0.071348094
-0.076785568
-0.083103385
-0.089997506
-0.096804013
-0.10247147
-0.10573589
-0.10570355
-0.10233271
-0.097255732
-0.093553367
-0.092341526
-0.09215638
-0.091889284
-0.091984061
-0.092365749
-0.093069237
-0.09393096
-0.094908708
-0.095967463
-0.097036662
-0.098011413
-0.098818695
-0.099457031
-0.0999889
-0.1004972
-0.1010374
-0.10161158
-0.10216115
-0.10257392
-0.10270341
-0.10239635
-0.10151748
-0.099961477
-0.097651982
-0.094532132
-0.090545297
-0.085618658
-0.07962187
-0.072382931
-0.063477836
-0.05276228
-0.039521889
-0.032577303
-0.027143211
-0.0229216
-0.019420944
-0.016419323
-0.013661983
-0.011115102
-0.0086063192
-0.0060773538
-0.0034455127
-0.00070666502
0.0022668513
0.0057844587
0.0099528029
0.014819486
0.020405671
0.02668762
0.033616518
0.041116229
0.049107955
0.057353228
0.06557484
0.073509646
0.081068812
0.088119519
0.094552133
0.10026847
0.10517504
0.10914393
0.11205853
0.1137881
0.11371117
0.11105036
0.10538253
0.095803105
0.081334601
0.060816461
0.033243561
-0.00092223327
-0.039046145
-0.069499383
-0.086637234
-0.091164139
-0.08892317
-0.079251099
-0.077002138
-0.049429048
-0.027661325
-0.032148497
-0.029844075
-0.02814318
-0.022337005
-0.016519113
-0.012926817
-0.011043263
-0.0099386434
-0.0090579966
-0.0082400399
-0.0074742925
-0.0067690853
-0.0061468927
-0.0056406532
-0.0052571703
-0.0049540869
-0.0047265995
-0.0045818697
-0.0045068472
-0.0045108471
-0.0045983899
-0.0047569392
-0.004987962
-0.0052732755
-0.0055972
-0.005934257
-0.0062541638
-0.0065261796
-0.0067218205
-0.006815685
-0.0067907545
-0.0066441723
-0.0063898916
-0.0060504785
-0.0056470451
-0.0051944565
-0.004702752
-0.0041780014
-0.0036238371
-0.0030420729
-0.0024338699
-0.0017969079
-0.0011305895
-0.00042555353
0.00031960363
0.0011550617
0.0020279384
0.0029316632
0.0038476991
0.0047619395
0.0056563788
0.0065194182
0.0073409962
0.0081144781
0.0088346687
0.0094983074
0.010103029
0.010646785
0.011126862
0.011539237
0.011878214
0.012136418
0.01230506
0.012374396
0.01233424
0.012174546
0.011886029
0.011460918
0.010893795
0.010182263
0.0093276206
0.0083350396
0.0072137095
0.0059764407
0.004639252
0.0032202219
0.0017380585
0.00020981007
-0.0013518973
-0.0029408172
-0.0045582505
-0.0062138373
-0.007925275
-0.0097163876
-0.011615175
-0.013651633
-0.015854292
-0.018247736
-0.020849451
-0.023666191
-0.026689672
-0.029890231
-0.033210194
-0.036560491
-0.039815027
-0.04282177
-0.045410066
-0.047440162
-0.048832915
-0.049676642
-0.050203
-0.050882426
-0.05205994
-0.053616457
-0.055450763
-0.057580145
-0.060096402
-0.063134308
-0.066836134
-0.071350209
-0.076788239
-0.083106509
-0.090001002
-0.096807849
-0.10247541
-0.10573901
-0.10570439
-0.10232871
-0.097247312
-0.093546604
-0.092339454
-0.092155376
-0.091888725
-0.091983982
-0.092366227
-0.093069985
-0.093931713
-0.094909323
-0.09596793
-0.097036932
-0.098011362
-0.098818139
-0.099455762
-0.099986724
-0.10049399
-0.10103317
-0.10160654
-0.10215572
-0.10256859
-0.10269869
-0.10239264
-0.10151506
-0.099960524
-0.097652606
-0.094534441
-0.090549469
-0.085625033
-0.079631185
-0.072396514
-0.063499727
-0.052799887
-0.039579793
-0.032618286
-0.027170508
-0.022939879
-0.019432775
-0.016426105
-0.013664667
-0.01111393
-0.008601028
-0.0060676657
-0.0034311813
-0.00068688987
0.0022950147
0.0058233489
0.010003091
0.014881489
0.020479112
0.026771663
0.033709825
0.041217121
0.049213256
0.057458814
0.065677146
0.07360703
0.081160024
0.088203101
0.094626905
0.10033329
0.10522844
0.10918417
0.11208336
0.1137926
0.11368707
0.1109913
0.10528294
0.095656452
0.081138075
0.06057505
0.032984369
-0.0011432123
-0.039134166
-0.069448606
-0.086535053
-0.09108025
-0.088872104
-0.07922897
-0.076994022
-0.049425542
-0.027659725
-0.032139336
-0.029833792
-0.028137883
-0.022350345
-0.016539246
-0.012944343
-0.011056866
-0.0099493141
-0.0090681235
-0.0082502289
-0.0074843425
-0.0067786161
-0.0061554387
-0.0056477354
-0.0052627674
-0.0049585288
-0.004729913
-0.0045840796
-0.0045080338
-0.0045109074
-0.0045973549
-0.004754901
-0.0049850003
-0.005269607
-0.0055930589
-0.005929978
-0.0062501554
-0.0065228649
-0.0067195732
-0.0068147825
-0.0067913069
-0.0066460827
-0.0063929054
-0.0060542842
-0.0056513574
-0.0051990412
-0.0047074006
-0.00418253
-0.0036280777
-0.003045863
-0.0024370614
-0.0017993577
-0.0011321619
-0.00042609078
0.00032017933
0.0011557325
0.0020285057
0.0029321348
0.0038480979
0.0047622929
0.0056566972
0.0065197034
0.0073412534
0.0081147202
0.0088349035
0.0094985389
0.010103255
0.010646998
0.011127044
0.011539366
0.011878263
0.01213636
0.01230487
0.012374053
0.012333731
0.012173866
0.011885184
0.011459921
0.010892668
0.010181034
0.0093263204
0.0083337032
0.0072123719
0.0059751361
0.0046380111
0.0032190696
0.0017370114
0.00020887588
-0.0013527189
-0.0029415327
-0.0045588709
-0.0062143753
-0.0079257399
-0.0097167867
-0.011615515
-0.013651917
-0.015854526
-0.01824793
-0.020849622
-0.023666368
-0.026689892
-0.029890535
-0.033210611
-0.036561024
-0.039815631
-0.042822324
-0.045410343
-0.047439842
-0.048831646
-0.049674195
-0.050199571
-0.050878793
-0.052057086
-0.053614611
-0.055449573
-0.057579506
-0.060096344
-0.063134875
-0.066837347
-0.071352097
-0.076790871
-0.083109938
-0.090005364
-0.096813388
-0.10248211
-0.10574587
-0.10570939
-0.10232791
-0.097239114
-0.093538184
-0.09233637
-0.092154126
-0.091888046
-0.091983715
-0.092366584
-0.093070689
-0.093932463
-0.094909941
-0.09596843
-0.097037284
-0.09801142
-0.09881767
-0.099454508
-0.099984478
-0.10049066
-0.10102883
-0.10160149
-0.10215044
-0.10256365
-0.10269459
-0.10238975
-0.10151361
-0.099960656
-0.0976544
-0.094538001
-0.090555012
-0.085632973
-0.079642467
-0.072412732
-0.06352631
-0.052845339
-0.039653094
-0.03267259
-0.027209483
-0.022968382
-0.019453728
-0.016441076
-0.013674805
-0.011119492
-0.0086017884
-0.0060633157
-0.0034214532
-0.00067083136
0.0023206426
0.0058609887
0.010053435
0.014944849
0.020555156
0.026859459
0.033807891
0.04132358
0.049324534
0.057570411
0.065785242
0.073709968
0.081256455
0.088291483
0.094705996
0.10040186
0.10528494
0.1092267
0.11210953
0.11379725
0.11366141
0.11092861
0.10517757
0.095501884
0.080932193
0.060324857
0.032721529
-0.0013552267
-0.039191886
-0.069353971
-0.086392147
-0.090968981
-0.088805777
-0.079202431
-0.076982513
-0.049421188
-0.02765784
-0.032126822
-0.029821414
-0.028130473
-0.022363855
-0.01656022
-0.012961954
-0.011070764
-0.0099603719
-0.0090787215
-0.0082609452
-0.0074949437
-0.0067886863
-0.0061644758
-0.005655232
-0.0052686989
-0.0049632333
-0.0047334174
-0.0045864111
-0.0045092743
-0.0045109507
-0.004596235
-0.0047527166
-0.004981839
-0.0052657012
-0.0055886607
-0.0059254434
-0.0062459182
-0.0065193749
-0.0067172271
-0.0068138733
-0.0067919485
-0.0066481648
-0.0063961563
-0.0060583763
-0.0056559915
-0.0052039708
-0.0047124062
-0.0041874158
-0.0036326638
-0.0030499752
-0.00244054
-0.0018020496
-0.0011339204
-0.00042675025
0.00032072113
0.0011563912
0.0020290708
0.0029326074
0.0038485058
0.0047626688
0.0056570474
0.006520023
0.0073415496
0.0081150056
0.0088351856
0.0094988213
0.010103536
0.010647268
0.011127288
0.011539561
0.011878381
0.012136374
0.012304753
0.012373783
0.012333292
0.012173251
0.011884396
0.011458973
0.01089158
0.010179832
0.0093250364
0.0083323707
0.0072110256
0.0059738106
0.0046367381
0.0032178763
0.0017359183
0.0002078965
-0.0013535782
-0.0029422721
-0.0045594958
-0.0062148936
-0.0079261571
-0.0097171082
-0.011615747
-0.013652067
-0.015854604
-0.018247953
-0.020849618
-0.023666379
-0.02668998
-0.029890767
-0.033211051
-0.036561712
-0.039816546
-0.04282336
-0.045411245
-0.047440203
-0.048830967
-0.049672031
-0.050195947
-0.050874669
-0.052053787
-0.053612434
-0.055448089
-0.057578542
-0.060095921
-0.063135098
-0.066838256
-0.07135379
-0.076793541
-0.083113813
-0.090010819
-0.096820993
-0.10249213
-0.10575731
-0.10571963
-0.10233153
-0.097231666
-0.09352809
-0.092332101
-0.092152609
-0.091887254
-0.091983253
-0.092366814
-0.09307135
-0.093933213
-0.094910564
-0.095968966
-0.097037724
-0.098011597
-0.098817299
-0.099453279
-0.099982173
-0.10048723
-0.10102444
-0.10159656
-0.10214554
-0.10255938
-0.10269144
-0.10238806
-0.10151353
-0.099962256
-0.097657727
-0.094543155
-0.090562257
-0.085642823
-0.07965613
-0.072432141
-0.063558585
-0.052900281
-0.039745004
-0.032743248
-0.027263003
-0.023009808
-0.019486332
-0.016466604
-0.013694625
-0.011133861
-0.0086105194
-0.0060660612
-0.0034179118
-0.00065985377
0.0023426389
0.0058965311
0.010103221
0.015009176
0.020633616
0.026950997
0.033910851
0.041435843
0.049442072
0.057688298
0.065899389
0.073818713
0.081358342
0.088384889
0.094789603
0.10047437
0.10534468
0.10927157
0.11213707
0.11380196
0.11363401
0.110862
0.10506599
0.095338942
0.080716597
0.060065962
0.032456069
-0.0015556164
-0.039214301
-0.06920867
-0.086201286
-0.090824383
-0.088720197
-0.079170032
-0.076966513
-0.049416028
-0.027655536
-0.032109862
-0.029806368
-0.028120172
-0.02237729
-0.016582129
-0.012979562
-0.011084878
-0.0099717835
-0.0090897865
-0.0082722019
-0.0075061187
-0.0067993232
-0.0061740315
-0.0056631678
-0.0052749858
-0.0049682172
-0.0047371244
-0.0045888718
-0.0045105716
-0.0045109751
-0.0045950237
-0.004750376
-0.0049784646
-0.005261543
-0.0055839898
-0.0059206386
-0.0062414399
-0.0065157015
-0.0067147803
-0.006812963
-0.0067926928
-0.0066504376
-0.0063996668
-0.0060627803
-0.0056609748
-0.0052092748
-0.0047177991
-0.0041926899
-0.0036376261
-0.0030544385
-0.0024443318
-0.0018050065
-0.0011358835
-0.00042754597
0.00032121911
0.0011570299
0.0020296267
0.0029330744
0.0038489183
0.0047630658
0.0056574286
0.0065203761
0.0073418852
0.0081153359
0.0088355174
0.009499158
0.010103876
0.010647603
0.011127602
0.011539831
0.011878581
0.012136474
0.012304725
0.012373601
0.012332938
0.012172717
0.011883681
0.011458087
0.010890542
0.010178668
0.0093237753
0.0083310461
0.007209672
0.0059724628
0.0046354293
0.0032166364
0.0017347728
0.00020686556
-0.00135448
-0.002943037
-0.0045601227
-0.0062153849
-0.007926515
-0.0097173352
-0.01161585
-0.013652056
-0.015854495
-0.018247771
-0.020849404
-0.023666194
-0.02668991
-0.029890914
-0.033211518
-0.03656258
-0.039817832
-0.042824969
-0.045412898
-0.047441401
-0.048831035
-0.04967027
-0.05019217
-0.050870038
-0.052050025
-0.053609899
-0.055446284
-0.057577232
-0.060095085
-0.063134958
-0.066838873
-0.071355338
-0.076796354
-0.083118307
-0.090017627
-0.096831063
-0.10250607
-0.10577423
-0.10573636
-0.10234102
-0.097225666
-0.093516427
-0.092326472
-0.092150806
-0.091886365
-0.091982592
-0.092366917
-0.093071971
-0.093933969
-0.094911193
-0.09596954
-0.097038256
-0.098011901
-0.098817033
-0.099452081
-0.099979825
-0.10048374
-0.10102012
-0.10159194
-0.1021413
-0.10255617
-0.10268972
-0.10238806
-0.10151532
-0.099965804
-0.097663034
-0.09455032
-0.090571603
-0.085654995
-0.07967266
-0.072455396
-0.063597682
-0.052966506
-0.039858928
-0.032833573
-0.027334271
-0.023067215
-0.019533486
-0.016505416
-0.013726701
-0.011159433
-0.0086294415
-0.0060779302
-0.0034223766
-0.00065551151
0.0023597624
0.0059290233
0.010151767
0.015074037
0.020714276
0.027046254
0.034018837
0.041554154
0.04956615
0.057812755
0.066019851
0.07393352
0.081465927
0.088483536
0.094877919
0.10055097
0.10540776
0.10931884
0.11216594
0.11380662
0.11360461
0.11079108
0.10494773
0.095167097
0.080490875
0.059798333
0.032188818
-0.0017421309
-0.039197183
-0.069006717
-0.085955593
-0.090640331
-0.088610934
-0.07912998
-0.076944628
-0.049410132
-0.027652655
-0.032087292
-0.02978795
-0.028106027
-0.022390319
-0.016605034
-0.012997126
-0.011099111
-0.0099835045
-0.0091013084
-0.0082840097
-0.0075178901
-0.0068105555
-0.0061841353
-0.0056715694
-0.0052816515
-0.0049734992
-0.0047410476
-0.0045914703
-0.0045119292
-0.0045109794
-0.0045937153
-0.0047478694
-0.0049748641
-0.0052571169
-0.0055790303
-0.0059155485
-0.0062367083
-0.0065118369
-0.0067122315
-0.006812058
-0.0067935556
-0.0066529226
-0.0064034616
-0.0060675238
-0.0056663367
-0.0052149838
-0.0047236112
-0.0041983842
-0.0036429957
-0.0030592822
-0.0024484635
-0.0018082512
-0.0011380694
-0.00042849186
0.00032166201
0.001157639
0.0020301648
0.0029335277
0.0038493301
0.0047634807
0.005657838
0.0065207601
0.0073422592
0.0081157111
0.0088359003
0.0094995518
0.01010428
0.010648008
0.011127994
0.011540188
0.011878875