/*--------------------------------*- C++ -*----------------------------------*\
| =========                 |                                                 |
| \\      /  F ield         | OpenFOAM: The Open Source CFD Toolbox           |
|  \\    /   O peration     | Version:  2.4.0                                 |
|   \\  /    A nd           | Web:      www.OpenFOAM.org                      |
|    \\/     M anipulation  |                                                 |
\*---------------------------------------------------------------------------*/
FoamFile
{
    version     2.0;
    format      ascii;
    class       volSymmTensorField;
    location    "310";
    object      R;
}
// * * * * * * * * * * * * * * * * * * * * * * * * * * * * * * * * * * * * * //

dimensions      [0 2 -2 0 0 0 0];

internalField   nonuniform List<symmTensor> 
32000
(
(0.02728465 -3.0940061e-07 -1.0395177e-26 0.027284644 -3.4549167e-26 0.027284647)
(0.0088225815 -5.3878159e-08 -3.3504104e-23 0.0088225813 -2.3155835e-26 0.0088225813)
(0.022700645 -1.906579e-07 -1.1859498e-22 0.022700667 3.1917472e-24 0.022700656)
(0.0082945452 -4.9173425e-08 -1.5374407e-23 0.0082945601 1.0750967e-24 0.0082945527)
(0.0062028298 -1.7686676e-08 -5.6442183e-24 0.0062028403 7.6338025e-25 0.0062028351)
(0.00036209916 1.1044724e-10 4.3447461e-26 0.000362099 7.0181185e-27 0.00036209908)
(0.00084042436 2.6678922e-09 9.6489547e-25 0.00084041992 -3.1781024e-25 0.00084042213)
(7.821966e-05 1.4422496e-09 -5.0272766e-27 7.8216094e-05 -1.0703449e-26 7.8217873e-05)
(0.0002303445 8.5306222e-10 3.9639032e-25 0.00023034155 -2.1329932e-25 0.00023034302)
(0.00012757096 4.0416794e-10 2.1465305e-25 0.00012756908 -1.4761074e-25 0.00012757002)
(0.00012796985 2.484336e-10 3.9020258e-28 0.00012796835 5.8509378e-27 0.0001279691)
(0.00010357734 1.6029709e-10 2.4872401e-27 0.0001035761 1.8782185e-27 0.00010357672)
(9.2631066e-05 1.083987e-10 7.7905728e-27 9.2630041e-05 9.1293951e-27 9.2630553e-05)
(8.1830607e-05 7.5292059e-11 -3.6579329e-27 8.1829768e-05 -2.9783868e-27 8.1830187e-05)
(7.4007915e-05 5.3787315e-11 -1.7363841e-27 7.4007246e-05 -2.5147953e-27 7.400758e-05)
(6.7685004e-05 3.9790874e-11 2.0139149e-27 6.768449e-05 3.3466598e-27 6.7684747e-05)
(6.2859063e-05 3.1538683e-11 7.6348754e-26 6.2858671e-05 -5.5134796e-26 6.2858867e-05)
(5.940365e-05 2.677737e-11 5.7610654e-26 5.9403346e-05 -4.5811285e-26 5.9403498e-05)
(5.6813685e-05 2.2089376e-11 2.4214674e-26 5.6813455e-05 -1.4463565e-26 5.681357e-05)
(5.4658495e-05 1.7361881e-11 1.79537e-26 5.4658327e-05 -1.0456133e-26 5.4658411e-05)
(5.2734188e-05 1.3049067e-11 3.0094927e-27 5.273407e-05 3.7947014e-27 5.2734129e-05)
(5.0969752e-05 8.7454742e-12 -1.8652185e-27 5.0969677e-05 -2.077881e-27 5.0969715e-05)
(4.9283063e-05 5.0417003e-12 2.4997619e-28 4.9283022e-05 4.9209172e-28 4.9283043e-05)
(4.7636903e-05 2.0513289e-12 8.2012361e-28 4.7636887e-05 1.011495e-27 4.7636895e-05)
(4.5968943e-05 -2.8957197e-13 1.0700565e-27 4.5968945e-05 1.4230264e-27 4.5968944e-05)
(4.4253038e-05 -2.7133924e-12 -9.5508468e-28 4.4253059e-05 -1.3242032e-27 4.4253049e-05)
(4.2384078e-05 -5.5002724e-12 -2.6153543e-27 4.2384119e-05 -3.3636969e-27 4.2384099e-05)
(4.0377636e-05 -8.0424329e-12 -3.2703117e-27 4.0377696e-05 -4.1880268e-27 4.0377666e-05)
(3.8373099e-05 -9.5612758e-12 9.029169e-28 3.8373166e-05 1.2652879e-27 3.8373133e-05)
(3.6453793e-05 -9.6124966e-12 -7.6875202e-28 3.6453857e-05 -1.2757897e-27 3.6453825e-05)
(3.4640667e-05 -7.9521683e-12 -8.2607677e-28 3.4640715e-05 -1.3526189e-27 3.4640691e-05)
(3.2940715e-05 -4.456326e-12 1.1248719e-27 3.2940739e-05 1.5359528e-27 3.2940727e-05)
(3.1361341e-05 3.0158459e-13 8.2226782e-28 3.1361339e-05 1.3189706e-27 3.136134e-05)
(2.9908345e-05 8.4741621e-12 -1.2374507e-28 2.9908306e-05 4.116949e-29 2.9908325e-05)
(2.8603867e-05 2.335724e-11 1.2416722e-26 2.8603775e-05 -1.2613199e-26 2.8603821e-05)
(2.7506623e-05 4.5779615e-11 2.4118386e-26 2.7506468e-05 -1.8291279e-26 2.7506545e-05)
(2.6667764e-05 7.474781e-11 3.703982e-26 2.666755e-05 -1.5994271e-26 2.6667657e-05)
(2.6028628e-05 1.0752879e-10 4.8611932e-26 2.6028365e-05 -2.3222817e-26 2.6028496e-05)
(2.5527738e-05 1.413386e-10 1.9043719e-27 2.5527445e-05 3.3164358e-27 2.5527591e-05)
(2.5159627e-05 1.737417e-10 -1.2049346e-27 2.5159324e-05 -1.5663075e-27 2.5159475e-05)
(2.4944735e-05 2.0254526e-10 -9.5148317e-29 2.4944442e-05 5.9926455e-28 2.4944588e-05)
(2.491263e-05 2.260935e-10 9.5192344e-29 2.4912365e-05 5.045598e-28 2.4912497e-05)
(2.5111313e-05 2.4365007e-10 -3.2517846e-28 2.511109e-05 -3.1891204e-28 2.5111201e-05)
(2.5598167e-05 2.5446522e-10 3.1238401e-28 2.5597996e-05 -1.1691e-28 2.5598081e-05)
(2.6509094e-05 2.5934702e-10 -3.4116911e-28 2.6508979e-05 -1.8544126e-28 2.6509036e-05)
(2.8018105e-05 2.5766919e-10 1.8371037e-25 2.8018049e-05 -1.0006168e-26 2.8018077e-05)
(3.1255556e-05 2.5753552e-10 1.8315974e-25 3.1255549e-05 -1.1964706e-27 3.1255553e-05)
(3.504901e-05 2.4551527e-10 1.7813541e-32 3.5049011e-05 3.8204477e-32 3.5049011e-05)
(3.7558278e-05 2.0954337e-10 -9.9062664e-33 3.7558279e-05 -2.3863052e-31 3.7558279e-05)
(3.9675033e-05 1.6412876e-10 1.7507305e-32 3.9675034e-05 2.930343e-31 3.9675033e-05)
(4.1483973e-05 1.1378299e-10 -1.1071205e-32 4.1483974e-05 -1.2726355e-31 4.1483973e-05)
(4.3094827e-05 6.6986567e-11 1.0622625e-32 4.3094828e-05 -1.7246498e-31 4.3094828e-05)
(4.4539115e-05 2.9117638e-11 -6.3436648e-33 4.4539116e-05 2.3980451e-31 4.4539115e-05)
(4.5849244e-05 3.9145081e-12 -9.0524095e-34 4.5849244e-05 -6.494218e-32 4.5849244e-05)
(4.7044292e-05 -1.3848944e-11 1.1312469e-33 4.7044293e-05 -8.3310688e-33 4.7044293e-05)
(4.814006e-05 -4.255352e-11 2.5234964e-33 4.8140061e-05 -9.1388694e-32 4.8140061e-05)
(4.9148572e-05 -8.1466795e-11 -5.7878691e-26 4.9148573e-05 1.7273786e-28 4.9148573e-05)
(5.007969e-05 -1.2783542e-10 -9.0886118e-26 5.0079691e-05 1.8933307e-28 5.0079691e-05)
(5.0941443e-05 -1.7909527e-10 6.359074e-26 5.0941445e-05 -9.9594582e-29 5.0941444e-05)
(5.174067e-05 -2.3359247e-10 8.2999815e-26 5.1740671e-05 -1.0510462e-28 5.1740671e-05)
(5.2483271e-05 -2.91162e-10 2.0685195e-25 5.2483272e-05 -2.2381514e-28 5.2483271e-05)
(5.3174279e-05 -3.532664e-10 2.511468e-25 5.3174281e-05 -2.4731994e-28 5.317428e-05)
(5.3818097e-05 -4.2285809e-10 -3.2617671e-33 5.3818099e-05 -1.2500565e-31 5.3818098e-05)
(5.4418623e-05 -5.0406118e-10 3.4233302e-35 5.4418625e-05 2.5551211e-31 5.4418624e-05)
(5.4979287e-05 -6.0181658e-10 4.096346e-33 5.4979289e-05 -4.3745215e-31 5.4979288e-05)
(5.5503131e-05 -7.2151938e-10 -3.6571534e-32 5.5503134e-05 4.9658209e-31 5.5503133e-05)
(5.5992926e-05 -8.6856036e-10 8.3328754e-33 5.5992929e-05 1.1374298e-31 5.5992927e-05)
(5.6451127e-05 -1.0476822e-09 -3.720144e-25 5.6451131e-05 3.9905782e-28 5.6451129e-05)
(5.687993e-05 -1.2620819e-09 -8.9693628e-25 5.6879935e-05 9.4655821e-28 5.6879932e-05)
(5.7281349e-05 -1.5124633e-09 -5.3781769e-25 5.7281355e-05 5.4824373e-28 5.7281352e-05)
(5.7657208e-05 -1.7963151e-09 9.4872656e-33 5.7657214e-05 1.3868142e-30 5.7657211e-05)
(5.8009204e-05 -2.1074376e-09 -5.2117552e-32 5.8009211e-05 -1.5179454e-30 5.8009207e-05)
(5.8338809e-05 -2.4360339e-09 -4.7510653e-33 5.8338817e-05 1.5872702e-30 5.8338813e-05)
(5.8647452e-05 -2.7691372e-09 -7.8646093e-32 5.8647459e-05 -1.1035083e-30 5.8647455e-05)
(5.8936383e-05 -3.0915519e-09 1.1069986e-31 5.893639e-05 9.9277664e-31 5.8936386e-05)
(5.9206755e-05 -3.3871629e-09 1.27694e-31 5.9206761e-05 7.9985008e-32 5.9206757e-05)
(5.9459797e-05 -3.6409245e-09 1.2929192e-24 5.9459802e-05 -5.1231077e-28 5.9459799e-05)
(5.9696384e-05 -3.8415824e-09 1.3647501e-24 5.9696388e-05 -4.0579158e-28 5.9696385e-05)
(5.9917799e-05 -3.9843361e-09 -5.6172011e-33 5.9917802e-05 -1.1864781e-31 5.99178e-05)
(6.0124587e-05 -4.0726161e-09 -1.2842123e-31 6.0124589e-05 -1.01054e-31 6.0124588e-05)
(6.0318044e-05 -4.117279e-09 -7.8036103e-34 6.0318045e-05 4.6160679e-33 6.0318044e-05)
(6.0498115e-05 -4.1339134e-09 -1.4680452e-24 6.0498115e-05 9.1824714e-29 6.0498115e-05)
(6.0664611e-05 -4.1394822e-09 -1.4705113e-24 6.0664612e-05 8.516585e-29 6.0664611e-05)
(6.0818764e-05 -4.1505672e-09 1.1488347e-31 6.0818765e-05 -9.4808689e-32 6.0818764e-05)
(6.0960961e-05 -4.1810685e-09 -3.7708104e-32 6.0960962e-05 -2.4143501e-31 6.0960961e-05)
(6.109206e-05 -4.2400553e-09 -1.1989767e-31 6.1092062e-05 7.813377e-31 6.1092061e-05)
(6.121245e-05 -4.3315742e-09 3.8826045e-32 6.1212452e-05 2.4748259e-31 6.1212451e-05)
(6.1323137e-05 -4.4557593e-09 5.7459962e-32 6.1323141e-05 -5.1925116e-31 6.1323139e-05)
(6.142139e-05 -4.6086892e-09 -4.1123914e-32 6.1421394e-05 -6.5050381e-31 6.1421392e-05)
(6.1513716e-05 -4.7850405e-09 -2.6267786e-32 6.1513721e-05 2.0037631e-30 6.1513718e-05)
(6.1595275e-05 -4.975739e-09 -5.0813828e-33 6.159528e-05 -2.0743803e-30 6.1595277e-05)
(6.1667845e-05 -5.1689187e-09 -1.8373367e-24 6.1667849e-05 4.5671852e-28 6.1667847e-05)
(6.1731706e-05 -5.3472267e-09 -1.9010007e-24 6.173171e-05 3.9473323e-28 6.1731707e-05)
(6.1787046e-05 -5.4839399e-09 1.0511387e-31 6.1787049e-05 1.5961766e-30 6.1787047e-05)
(6.1834024e-05 -5.5383206e-09 -7.8093147e-32 6.1834024e-05 -1.6267854e-31 6.1834024e-05)
(6.1872822e-05 -5.4535409e-09 2.7084314e-32 6.1872818e-05 -1.4521717e-31 6.187282e-05)
(6.190354e-05 -5.1635979e-09 -1.8355263e-24 6.1903531e-05 -8.1689252e-28 6.1903535e-05)
(6.1926278e-05 -4.6092501e-09 -1.6385607e-24 6.1926263e-05 -1.3826117e-27 6.1926271e-05)
(6.1941113e-05 -3.7791769e-09 7.1125257e-33 6.1941093e-05 -5.9109132e-31 6.1941104e-05)
(6.1948031e-05 -2.7373311e-09 4.5530824e-33 6.1948009e-05 5.0477562e-32 6.1948021e-05)
(6.194698e-05 -1.6763898e-09 1.5666322e-33 6.194696e-05 -8.4508246e-32 6.1946971e-05)
(6.1938361e-05 -8.1414478e-10 -4.4209443e-33 6.1938347e-05 -2.8572266e-32 6.1938355e-05)
(6.1921929e-05 -3.2261342e-10 1.146891e-25 6.1921922e-05 6.2740233e-28 6.1921926e-05)
(6.1897434e-05 -1.4342583e-10 5.0985024e-26 6.1897431e-05 2.4234882e-28 6.1897433e-05)
(6.186495e-05 -7.2662336e-11 8.2659211e-34 6.1864949e-05 -5.9693393e-32 6.186495e-05)
(6.182437e-05 -4.7696628e-11 6.3336222e-34 6.182437e-05 -2.6403969e-31 6.182437e-05)
(6.177556e-05 -5.1943158e-11 -1.8450924e-26 6.1775561e-05 6.7996362e-29 6.1775561e-05)
(6.1718367e-05 -1.0732085e-10 3.949254e-29 6.171837e-05 -2.1707464e-31 6.1718369e-05)
(6.165262e-05 -2.8162554e-10 1.0010296e-25 6.1652627e-05 -6.0341457e-28 6.1652623e-05)
(6.1578103e-05 -7.2093029e-10 -4.6221119e-32 6.1578117e-05 -2.4520094e-30 6.1578109e-05)
(6.1494562e-05 -1.6612913e-09 4.5281218e-32 6.149459e-05 2.6777197e-30 6.1494575e-05)
(6.1401745e-05 -3.4187403e-09 1.6642243e-32 6.1401792e-05 -5.632967e-30 6.1401767e-05)
(6.1299344e-05 -6.2419217e-09 1.1461135e-31 6.1299411e-05 -2.3142919e-30 6.1299376e-05)
(6.118702e-05 -9.9957932e-09 -3.219734e-31 6.1187097e-05 6.3563189e-30 6.1187057e-05)
(6.1064422e-05 -1.3814611e-08 3.8764719e-31 6.1064482e-05 1.2422348e-29 6.1064451e-05)
(6.0931139e-05 -1.6054115e-08 -5.2992787e-31 6.0931146e-05 -8.5367063e-30 6.0931143e-05)
(6.0786717e-05 -1.4912768e-08 2.4522409e-32 6.0786645e-05 -2.5696077e-30 6.0786684e-05)
(6.0630652e-05 -9.9871689e-09 4.1307531e-31 6.0630523e-05 1.2826822e-29 6.0630592e-05)
(6.0462365e-05 -3.6280448e-09 -8.6960748e-32 6.0462253e-05 2.9330216e-30 6.0462313e-05)
(6.0281276e-05 -1.1008089e-10 -1.3954096e-32 6.0281253e-05 -1.651708e-31 6.0281265e-05)
(6.0086843e-05 1.5182334e-09 -5.3928608e-25 6.0086796e-05 4.3403827e-27 6.0086821e-05)
(5.9878269e-05 2.777845e-09 -9.8645495e-25 5.9878267e-05 9.2450124e-29 5.9878267e-05)
(5.9654854e-05 1.9053854e-09 6.769186e-25 5.9654866e-05 1.1030378e-27 5.9654859e-05)
(5.9415781e-05 1.7101672e-09 6.0729049e-25 5.9415781e-05 -3.3572379e-29 5.9415781e-05)
(5.9160107e-05 1.9095511e-09 4.7063335e-32 5.9160107e-05 -2.384121e-30 5.9160107e-05)
(5.8886873e-05 1.6846097e-09 -5.9848642e-25 5.888688e-05 -6.237646e-28 5.8886876e-05)
(5.8595035e-05 1.2982577e-09 -4.6101978e-25 5.8595044e-05 -7.8338169e-28 5.8595039e-05)
(5.8283402e-05 8.973965e-10 6.379266e-25 5.8283409e-05 1.3356088e-27 5.8283405e-05)
(5.7950735e-05 5.9511357e-10 4.2283652e-25 5.795074e-05 1.0060448e-27 5.7950737e-05)
(5.7595653e-05 3.6847981e-10 3.980867e-32 5.7595657e-05 3.1413076e-31 5.7595655e-05)
(5.7216601e-05 2.1205319e-10 -7.5405914e-26 5.7216603e-05 -2.2856755e-28 5.7216602e-05)
(5.6811955e-05 1.2507039e-10 -4.4450387e-26 5.6811956e-05 -1.0501247e-28 5.6811955e-05)
(5.6379911e-05 9.4065735e-11 9.6962935e-33 5.6379911e-05 1.7406434e-30 5.6379911e-05)
(5.5918406e-05 1.0530739e-10 -1.7634927e-32 5.5918405e-05 -6.4241639e-31 5.5918405e-05)
(5.5425259e-05 1.6100541e-10 -1.2598416e-25 5.5425257e-05 -4.4275309e-27 5.5425258e-05)
(5.4898018e-05 2.8583195e-10 -2.6180082e-25 5.4898014e-05 -9.0717572e-24 5.4898016e-05)
(5.433392e-05 5.4169463e-10 1.649042e-26 5.4333912e-05 -1.1973727e-23 5.4333917e-05)
(5.3729954e-05 1.0507257e-09 5.6724337e-25 5.3729939e-05 2.1347238e-26 5.3729947e-05)
(5.3082679e-05 2.0062269e-09 3.8639988e-25 5.3082653e-05 2.1868162e-23 5.3082667e-05)
(5.2388222e-05 3.6484743e-09 -5.0818834e-25 5.238818e-05 2.9113601e-23 5.2388202e-05)
(5.1642195e-05 6.199919e-09 -6.5817016e-25 5.1642133e-05 -2.6391928e-26 5.1642166e-05)
(5.083958e-05 9.785047e-09 -9.599209e-31 5.0839498e-05 -2.1812015e-29 5.0839541e-05)
(4.9974551e-05 1.4377571e-08 -4.1394833e-32 4.997445e-05 -7.3600134e-30 4.9974503e-05)
(4.9040337e-05 1.9808058e-08 1.6159959e-30 4.9040221e-05 2.1248256e-29 4.9040282e-05)
(4.8028846e-05 2.5823459e-08 1.372644e-30 4.8028721e-05 -1.1681412e-29 4.8028786e-05)
(4.6930281e-05 3.215876e-08 -1.7099029e-30 4.6930152e-05 3.7810686e-29 4.6930219e-05)
(4.5732778e-05 3.8595298e-08 2.1239376e-30 4.5732649e-05 -5.9756973e-29 4.5732715e-05)
(4.4420566e-05 4.4977656e-08 -4.1520374e-30 4.4420439e-05 4.9166406e-29 4.4420502e-05)
(4.2974656e-05 5.1226884e-08 8.3582269e-31 4.2974532e-05 -7.8507626e-29 4.2974592e-05)
(4.1362796e-05 5.7204802e-08 -3.0687546e-30 4.1362678e-05 2.8393994e-29 4.1362733e-05)
(3.9553644e-05 6.2859704e-08 9.5077211e-30 3.9553542e-05 1.4964585e-29 3.9553587e-05)
(3.7437329e-05 6.6911702e-08 -5.9594785e-30 3.7437263e-05 -1.8548129e-30 3.7437285e-05)
(3.4929381e-05 6.8712432e-08 -4.9329683e-29 3.4929508e-05 5.2494787e-29 3.4929433e-05)
(3.1147107e-05 5.2527005e-08 -4.1494966e-27 3.1148813e-05 -2.2432332e-27 3.1147935e-05)
(2.7922922e-05 3.3296374e-08 1.276697e-26 2.7930435e-05 -1.0186615e-25 2.7926675e-05)
(2.642504e-05 2.5751847e-08 3.5302204e-26 2.6436593e-05 -1.4084667e-25 2.6430819e-05)
(2.5513747e-05 2.0612061e-08 1.1802215e-27 2.5527733e-05 6.2431917e-26 2.5520745e-05)
(2.502012e-05 1.731273e-08 -6.3097884e-27 2.5036032e-05 -6.7316345e-26 2.5028083e-05)
(2.4823873e-05 1.502014e-08 -1.4757052e-27 2.4841491e-05 -2.3454312e-26 2.4832689e-05)
(2.4846095e-05 1.3311509e-08 -8.2265686e-27 2.4865317e-05 -8.4642491e-26 2.4855714e-05)
(2.5047631e-05 1.1950796e-08 3.0657718e-26 2.5068441e-05 3.6726185e-26 2.5058045e-05)
(2.5418482e-05 1.0869659e-08 2.0672813e-26 2.5440974e-05 2.3836645e-26 2.5429737e-05)
(2.5920108e-05 9.9281259e-09 2.1550677e-26 2.5944302e-05 -3.1778417e-26 2.5932216e-05)
(2.6564038e-05 9.0691932e-09 -3.4851725e-26 2.6589927e-05 -1.688483e-26 2.6576994e-05)
(2.7395223e-05 8.3028742e-09 5.6820493e-26 2.7422921e-05 2.2184726e-26 2.7409085e-05)
(2.8473378e-05 7.7606683e-09 1.4933818e-26 2.8503457e-05 -9.0035188e-27 2.8488433e-05)
(2.9773353e-05 7.4092762e-09 -2.753322e-26 2.9806266e-05 2.7911614e-27 2.9789829e-05)
(3.1209667e-05 7.1033169e-09 -2.0313656e-26 3.1245345e-05 -6.7159407e-27 3.1227529e-05)
(3.2768807e-05 6.8036945e-09 -6.5383539e-26 3.2806934e-05 -2.870236e-26 3.2787897e-05)
(3.4445776e-05 6.5000991e-09 -1.4665772e-25 3.448583e-05 -5.9690798e-27 3.4465834e-05)
(3.6231884e-05 6.1919865e-09 9.2084965e-26 3.6273176e-05 -6.001224e-26 3.6252565e-05)
(3.8124333e-05 5.8863887e-09 -1.5380354e-25 3.816606e-05 5.220691e-26 3.8145234e-05)
(4.0097726e-05 5.5881086e-09 -4.2112244e-24 4.0139013e-05 -3.0712069e-24 4.0118409e-05)
(4.207563e-05 5.2627537e-09 -4.1384323e-24 4.2115358e-05 -2.8847939e-24 4.2095534e-05)
(4.3911069e-05 4.8124258e-09 -9.9380246e-26 4.3947881e-05 9.7891465e-26 4.3929513e-05)
(4.5578725e-05 4.2055263e-09 1.234413e-25 4.5611465e-05 -1.2790861e-25 4.559513e-05)
(4.7157226e-05 3.4972426e-09 -5.5166451e-25 4.7185313e-05 6.2084248e-25 4.71713e-05)
(4.8783819e-05 2.8005704e-09 -2.2825377e-24 4.8807141e-05 -1.8596945e-24 4.8795506e-05)
(5.0413788e-05 2.1359312e-09 -2.3319447e-24 5.0432384e-05 -7.939262e-25 5.0423107e-05)
(5.2120013e-05 1.5366021e-09 -2.1889232e-26 5.2134137e-05 -7.1926292e-27 5.2127091e-05)
(5.3971967e-05 1.0250817e-09 1.2106478e-25 5.3982027e-05 -1.2486483e-25 5.3977009e-05)
(5.603983e-05 6.1252332e-10 -1.7127559e-25 5.604633e-05 1.9034268e-25 5.6043087e-05)
(5.8517848e-05 3.046881e-10 5.606244e-26 5.8521409e-05 -5.0748967e-26 5.8519633e-05)
(6.1845108e-05 1.0432165e-10 -4.6324438e-26 6.1846489e-05 5.2831297e-26 6.18458e-05)
(6.6532292e-05 -6.9063434e-13 -2.3490816e-26 6.6532307e-05 2.7665801e-26 6.65323e-05)
(7.2578581e-05 -1.1181647e-10 6.3329753e-26 7.2577289e-05 -7.8460633e-26 7.2577933e-05)
(8.0347601e-05 -5.2177329e-10 1.8907245e-26 8.0342e-05 7.1982928e-28 8.0344793e-05)
(8.9908354e-05 -1.5916171e-09 -3.4050975e-25 8.9893688e-05 3.9144477e-25 8.9901e-05)
(0.00010323766 -4.2119418e-09 5.7610793e-25 0.00010320585 -7.2797631e-25 0.00010322171)
(0.000116869 -1.0251002e-08 -6.8577107e-25 0.00011680757 7.189998e-25 0.00011683819)
(0.00014665834 -2.4268515e-08 -3.0039179e-26 0.00014654638 5.5868412e-25 0.00014660219)
(0.00014845067 -5.0848752e-08 -4.4066553e-25 0.00014827566 1.8596367e-26 0.00014836291)
(0.00026016952 -1.0926877e-07 4.3810673e-23 0.00025990041 2.0798627e-23 0.0002600346)
(9.5232407e-05 -1.2544586e-07 4.5466279e-23 9.502553e-05 1.5300103e-23 9.5128733e-05)
(0.00082178806 -2.2270788e-07 2.5519663e-25 0.00082155392 -1.5673645e-24 0.0008216708)
(0.00035562242 -1.1981159e-07 -6.4012761e-26 0.00035554739 -3.2429186e-25 0.00035558488)
(0.0059173215 -2.0938696e-07 8.5250624e-26 0.0059172537 4.6968219e-25 0.0059172877)
(0.0087126995 -1.3841079e-07 -4.4606327e-26 0.008712683 4.1308888e-26 0.0087126913)
(0.024069099 -2.3329783e-07 1.4505964e-22 0.024069097 3.4348378e-25 0.024069098)
(0.0090055302 -4.2702178e-08 2.6547924e-23 0.0090055311 -1.5156186e-25 0.0090055307)
(0.0073580047 -1.6411782e-07 -4.3504993e-27 0.0073580019 -2.1095754e-26 0.0073580033)
(0.0034326658 -5.3660098e-08 2.9051214e-23 0.0034326654 1.7428563e-26 0.0034326655)
(0.0069652367 -1.1714925e-07 2.1274566e-22 0.0069652499 -5.9518554e-24 0.0069652433)
(0.0033061396 -4.3097973e-08 6.4344732e-23 0.0033061519 -4.5850542e-24 0.0033061457)
(0.0025901075 -1.7921821e-08 5.1296612e-24 0.0025901174 -5.7532294e-25 0.0025901125)
(0.00016568965 -9.276309e-11 -4.917038e-26 0.00016568956 -2.2243489e-27 0.00016568961)
(0.00042545155 2.781185e-09 -1.0746896e-24 0.00042544674 3.1541009e-25 0.00042544915)
(6.4202899e-05 2.3981881e-09 -5.8683601e-27 6.4196941e-05 -2.2070586e-26 6.4199924e-05)
(0.00013900525 1.1534454e-09 -5.4352747e-25 0.00013900129 2.4889398e-25 0.00013900327)
(8.5364067e-05 6.0887979e-10 -3.1698042e-25 8.5361251e-05 2.2166063e-25 8.536266e-05)
(8.3535056e-05 3.6220016e-10 1.4981579e-26 8.3532862e-05 1.0616201e-26 8.353396e-05)
(6.9176837e-05 2.3542994e-10 6.821164e-27 6.9175028e-05 3.7440423e-27 6.9175933e-05)
(6.1895221e-05 1.5753697e-10 1.0734885e-27 6.1893734e-05 -9.1291737e-27 6.1894478e-05)
(5.4874958e-05 1.0848108e-10 6.6181563e-25 5.4873754e-05 -5.4045761e-25 5.4874357e-05)
(4.9549382e-05 7.6563521e-11 5.1467e-25 4.9548438e-05 -4.1956703e-25 4.9548911e-05)
(4.514329e-05 5.574916e-11 1.4553318e-27 4.5142578e-05 4.2261067e-27 4.5142935e-05)
(4.1639054e-05 4.3171977e-11 -9.4412423e-26 4.1638524e-05 7.4660119e-26 4.1638789e-05)
(3.8996166e-05 3.5726096e-11 -7.7623599e-26 3.8995766e-05 5.1322364e-26 3.8995966e-05)
(3.6935923e-05 2.8776743e-11 -2.8134589e-26 3.6935629e-05 1.7874824e-26 3.6935776e-05)
(3.5191955e-05 2.2071032e-11 -2.0077221e-26 3.5191746e-05 1.3857845e-26 3.5191851e-05)
(3.3630297e-05 1.6217009e-11 -2.4552494e-27 3.3630154e-05 -4.1305489e-27 3.3630225e-05)
(3.2202331e-05 1.0675009e-11 2.266258e-27 3.2202243e-05 2.2825859e-27 3.2202287e-05)
(3.0855733e-05 6.1223534e-12 3.8820685e-27 3.0855686e-05 4.6453287e-27 3.0855709e-05)
(2.9564445e-05 2.6813444e-12 -1.2282248e-27 2.9564427e-05 -1.5645579e-27 2.9564436e-05)
(2.829132e-05 2.8186921e-13 -6.651072e-28 2.829132e-05 -8.6474931e-28 2.829132e-05)
(2.701735e-05 -1.9383753e-12 1.0651396e-27 2.7017368e-05 1.4545439e-27 2.7017359e-05)
(2.5678139e-05 -4.6492093e-12 1.4282519e-27 2.5678177e-05 2.0383753e-27 2.5678158e-05)
(2.4266404e-05 -7.2132118e-12 4.216413e-28 2.426646e-05 4.7258244e-28 2.4266432e-05)
(2.2851407e-05 -8.7643929e-12 -4.5076112e-28 2.285147e-05 -9.1647933e-28 2.2851439e-05)
(2.1482679e-05 -8.8257684e-12 -3.38043e-27 2.1482737e-05 -4.0089886e-27 2.1482708e-05)
(2.0174709e-05 -7.2343942e-12 -1.3794173e-27 2.0174752e-05 -1.5742204e-27 2.0174731e-05)
(1.8933271e-05 -4.0662274e-12 -1.0855703e-27 1.8933291e-05 -1.533163e-27 1.8933281e-05)
(1.7763683e-05 -2.8568287e-13 -2.6827721e-27 1.7763682e-05 -4.0146236e-27 1.7763683e-05)
(1.6669961e-05 6.0770758e-12 -5.0499419e-29 1.666993e-05 4.948822e-29 1.6669946e-05)
(1.5664338e-05 1.9004374e-11 -8.5741652e-27 1.5664259e-05 1.3761469e-26 1.5664299e-05)
(1.4778953e-05 3.9360894e-11 -2.4623317e-26 1.4778816e-05 1.0221003e-26 1.4778885e-05)
(1.4044714e-05 6.5962835e-11 -2.9713998e-26 1.4044521e-05 1.9261096e-26 1.4044617e-05)
(1.3438929e-05 9.5809007e-11 -2.1362557e-25 1.3438691e-05 1.079536e-25 1.343881e-05)
(1.2931624e-05 1.2590872e-10 -2.1721672e-25 1.293136e-05 8.7221338e-26 1.2931492e-05)
(1.251972e-05 1.5385308e-10 2.5867297e-25 1.251945e-05 -8.9895084e-26 1.2519585e-05)
(1.2212223e-05 1.7771616e-10 2.8441683e-25 1.2211965e-05 -9.4127353e-26 1.2212094e-05)
(1.2022176e-05 1.9627961e-10 6.1392362e-28 1.2021945e-05 3.6846123e-28 1.2022061e-05)
(1.1971162e-05 2.0927073e-10 3.1100509e-25 1.197097e-05 -6.7862384e-26 1.1971066e-05)
(1.2087403e-05 2.1647515e-10 3.1542482e-25 1.2087257e-05 -5.2391407e-26 1.208733e-05)
(1.2433614e-05 2.189742e-10 9.8984835e-28 1.2433517e-05 4.2050707e-28 1.2433565e-05)
(1.3101362e-05 2.1660513e-10 -1.565295e-25 1.3101314e-05 8.4700683e-27 1.3101338e-05)
(1.4577463e-05 2.1623289e-10 -1.5638693e-25 1.4577458e-05 1.0111243e-27 1.4577461e-05)
(1.6296656e-05 2.0486086e-10 -8.7606278e-33 1.6296658e-05 7.3157216e-32 1.6296657e-05)
(1.7449535e-05 1.7228456e-10 -2.6390761e-32 1.7449538e-05 5.7684962e-32 1.7449537e-05)
(1.8413346e-05 1.315337e-10 4.1451359e-32 1.841335e-05 -1.644155e-31 1.8413348e-05)
(1.9237734e-05 8.7327583e-11 -3.2643254e-32 1.9237737e-05 4.5111496e-32 1.9237735e-05)
(1.997031e-05 4.7386362e-11 -3.6642519e-26 1.9970313e-05 -3.2891222e-28 1.9970311e-05)
(2.0626791e-05 1.6466889e-11 -1.4294057e-26 2.0626793e-05 -2.6213193e-28 2.0626792e-05)
(2.1221745e-05 -2.5209284e-12 -7.2858048e-34 2.1221746e-05 -1.2600809e-31 2.1221745e-05)
(2.1764102e-05 -1.8642207e-11 -7.14231e-34 2.1764104e-05 1.4337638e-31 2.1764103e-05)
(2.2261099e-05 -4.723845e-11 5.0985357e-33 2.2261101e-05 1.4476323e-31 2.22611e-05)
(2.2718279e-05 -8.5433189e-11 5.1086443e-26 2.2718281e-05 -1.5260282e-28 2.271828e-05)
(2.3140167e-05 -1.3044346e-10 8.0549568e-26 2.314017e-05 -1.6798125e-28 2.3140169e-05)
(2.3530459e-05 -1.7974332e-10 -5.6788317e-26 2.3530462e-05 8.9675889e-29 2.3530461e-05)
(2.3892292e-05 -2.3171665e-10 2.3869238e-25 2.3892295e-05 -6.8430557e-28 2.3892293e-05)
(2.4228362e-05 -2.8617402e-10 5.9151134e-25 2.4228366e-05 -1.4320594e-27 2.4228364e-05)
(2.4540981e-05 -3.4445914e-10 2.4510891e-25 2.4540985e-05 -6.6597162e-28 2.4540983e-05)
(2.4832161e-05 -4.092967e-10 -7.5979745e-32 2.4832165e-05 7.4624428e-33 2.4832163e-05)
(2.5103681e-05 -4.8447664e-10 7.2651954e-33 2.5103686e-05 -1.175519e-31 2.5103683e-05)
(2.5357109e-05 -5.7451117e-10 -2.5905029e-32 2.5357115e-05 -2.924393e-31 2.5357112e-05)
(2.5593838e-05 -6.8429082e-10 -8.7754991e-33 2.5593845e-05 9.8559136e-31 2.5593841e-05)
(2.5815124e-05 -8.1865969e-10 -1.1072949e-32 2.5815132e-05 -1.4507138e-30 2.5815128e-05)
(2.6022095e-05 -9.8182995e-10 3.3364355e-25 2.6022106e-05 -3.5589514e-28 2.6022101e-05)
(2.6215749e-05 -1.1765746e-09 3.259063e-24 2.6215761e-05 -5.3479496e-27 2.6215755e-05)
(2.6397003e-05 -1.4033939e-09 3.4183404e-24 2.6397017e-05 -5.6436312e-27 2.639701e-05)
(2.6566685e-05 -1.6598871e-09 1.0410315e-31 2.65667e-05 8.5095122e-31 2.6566693e-05)
(2.6725566e-05 -1.9403603e-09 -1.5904785e-31 2.6725583e-05 -3.2837701e-31 2.6725575e-05)
(2.6874319e-05 -2.235935e-09 2.6085218e-31 2.6874336e-05 5.8373072e-32 2.6874328e-05)
(2.7013593e-05 -2.5349459e-09 -5.2721602e-32 2.701361e-05 -5.8073665e-31 2.7013602e-05)
(2.7143963e-05 -2.8237911e-09 -3.901981e-31 2.7143979e-05 4.6779092e-31 2.7143971e-05)
(2.7265963e-05 -3.0881061e-09 2.3666596e-31 2.7265977e-05 2.57137e-31 2.726597e-05)
(2.7380151e-05 -3.3145316e-09 -1.1512259e-24 2.7380163e-05 4.554821e-28 2.7380157e-05)
(2.7486961e-05 -3.4931358e-09 -1.2124838e-24 2.7486969e-05 3.605271e-28 2.7486965e-05)
(2.7586969e-05 -3.6197462e-09 -1.7789715e-32 2.7586974e-05 -9.7190798e-32 2.7586972e-05)
(2.7680464e-05 -3.6974669e-09 -3.9715515e-31 2.7680467e-05 -7.3434014e-32 2.7680465e-05)
(2.7767963e-05 -3.7359228e-09 -1.1634955e-31 2.7767964e-05 2.5043966e-31 2.7767963e-05)
(2.7849422e-05 -3.7488545e-09 1.3052613e-24 2.7849422e-05 -8.1652436e-29 2.7849422e-05)
(2.7924738e-05 -3.7511006e-09 1.3056016e-24 2.7924738e-05 -7.5910649e-29 2.7924738e-05)
(2.7994394e-05 -3.757104e-09 -1.1806089e-31 2.7994394e-05 -6.1418989e-31 2.7994394e-05)
(2.80586e-05 -3.778897e-09 7.9823656e-24 2.8058602e-05 -7.5152905e-28 2.8058601e-05)
(2.8117744e-05 -3.8241787e-09 8.0890613e-24 2.8117747e-05 -1.3305979e-27 2.8117745e-05)
(2.8172029e-05 -3.8962006e-09 3.2809426e-31 2.8172034e-05 2.8216483e-31 2.8172031e-05)
(2.822347e-05 -3.9950085e-09 -3.4029464e-31 2.8223476e-05 4.947329e-31 2.8223473e-05)
(2.8263763e-05 -4.1159374e-09 5.8258006e-24 2.8263771e-05 -2.0143747e-27 2.8263767e-05)
(2.8307802e-05 -4.2562482e-09 6.0364715e-24 2.8307811e-05 -2.2541084e-27 2.8307807e-05)
(2.8344552e-05 -4.4069343e-09 1.6194807e-31 2.8344561e-05 -9.3491581e-31 2.8344557e-05)
(2.8377252e-05 -4.5588552e-09 1.6259146e-24 2.8377261e-05 -4.0280596e-28 2.8377257e-05)
(2.8406028e-05 -4.6982548e-09 1.6798885e-24 2.8406036e-05 -3.4834567e-28 2.8406032e-05)
(2.8430967e-05 -4.8038316e-09 5.9601731e-32 2.8430971e-05 -1.8327921e-30 2.8430969e-05)
(2.8452141e-05 -4.8424369e-09 -2.0004347e-32 2.845214e-05 -3.4287051e-31 2.8452141e-05)
(2.8469632e-05 -4.7668051e-09 5.4652832e-32 2.8469622e-05 8.5011593e-31 2.8469627e-05)
(2.8483484e-05 -4.5205576e-09 1.6212045e-24 2.8483462e-05 7.211493e-28 2.8483473e-05)
(2.8493746e-05 -4.0509643e-09 1.4480742e-24 2.8493709e-05 1.2223539e-27 2.8493727e-05)
(2.8500447e-05 -3.34304e-09 -2.9695637e-32 2.8500397e-05 3.5679994e-31 2.8500422e-05)
(2.8503345e-05 -2.444624e-09 4.6147942e-33 2.8503289e-05 1.4512084e-31 2.8503317e-05)
(2.8502705e-05 -1.5158847e-09 -3.0329743e-33 2.8502653e-05 8.9453425e-32 2.8502679e-05)
(2.8499067e-05 -7.4644731e-10 2.1513933e-33 2.849903e-05 -2.5089773e-34 2.8499048e-05)
(2.8491855e-05 -2.9530037e-10 -1.0397609e-25 2.8491836e-05 -5.6855371e-28 2.8491845e-05)
(2.8480835e-05 -1.2136743e-10 4.3073564e-26 2.8480827e-05 6.6903227e-28 2.8480831e-05)
(2.8466219e-05 -4.9287782e-11 4.1091225e-26 2.8466216e-05 3.7938834e-28 2.8466217e-05)
(2.8447956e-05 -2.3034603e-11 7.1208293e-33 2.8447956e-05 -9.3207994e-32 2.8447956e-05)
(2.8425988e-05 -2.2366798e-11 1.6610659e-26 2.842599e-05 -6.107105e-29 2.8425989e-05)
(2.8400243e-05 -6.1000694e-11 -1.3093007e-29 2.840025e-05 2.6009932e-31 2.8400247e-05)
(2.8370641e-05 -1.9353735e-10 -8.7637175e-26 2.8370657e-05 5.2932262e-28 2.8370649e-05)
(2.8337085e-05 -5.4430022e-10 4.1052382e-32 2.833712e-05 -1.2108941e-30 2.8337103e-05)
(2.8299458e-05 -1.3182465e-09 -7.1454142e-32 2.8299527e-05 3.3477441e-31 2.8299493e-05)
(2.8257643e-05 -2.7934724e-09 -2.2826352e-32 2.8257761e-05 8.6366192e-31 2.8257703e-05)
(2.8211508e-05 -5.199831e-09 1.8906061e-31 2.821168e-05 2.0594878e-30 2.8211595e-05)
(2.816091e-05 -8.4496447e-09 2.8902558e-31 2.8161113e-05 3.4215204e-30 2.8161012e-05)
(2.8105709e-05 -1.1831458e-08 4.7671657e-31 2.8105878e-05 -5.1023413e-30 2.8105793e-05)
(2.8045731e-05 -1.3947896e-08 -1.3765907e-30 2.8045772e-05 3.8912375e-30 2.8045751e-05)
(2.7980759e-05 -1.3210352e-08 3.1882143e-31 2.7980603e-05 4.8733046e-31 2.7980679e-05)
(2.7910521e-05 -9.1400469e-09 -6.174119e-31 2.791021e-05 -2.1115135e-29 2.7910363e-05)
(2.7834694e-05 -3.5768453e-09 2.6228243e-31 2.7834411e-05 -1.3840608e-30 2.7834551e-05)
(2.7753014e-05 -1.9924991e-10 8.2507342e-33 2.7752945e-05 4.7857936e-30 2.7752979e-05)
(2.766543e-05 1.158334e-09 4.7677259e-25 2.76653e-05 -3.8488147e-27 2.7665364e-05)
(2.7571392e-05 2.4316215e-09 8.8499354e-25 2.7571373e-05 -7.4984864e-29 2.7571383e-05)
(2.7470684e-05 1.7868402e-09 -6.1449809e-25 2.7470709e-05 -1.0217279e-27 2.7470697e-05)
(2.7362938e-05 1.6273484e-09 -5.5119622e-25 2.7362936e-05 2.9913516e-29 2.7362937e-05)
(2.7247685e-05 1.8151624e-09 3.0782342e-32 2.7247685e-05 3.0290465e-30 2.7247685e-05)
(2.7124497e-05 1.6240627e-09 5.4199923e-25 2.7124514e-05 5.7463943e-28 2.7124505e-05)
(2.699291e-05 1.2703607e-09 4.1948147e-25 2.6992932e-05 7.1164189e-28 2.6992921e-05)
(2.6852382e-05 8.939851e-10 -5.8121457e-25 2.6852402e-05 -1.2139091e-27 2.6852392e-05)
(2.6702347e-05 6.0408755e-10 -3.874765e-25 2.6702362e-05 -9.2416545e-28 2.6702355e-05)
(2.654218e-05 3.846277e-10 -4.4441727e-32 2.6542191e-05 -3.0346548e-30 2.6542185e-05)
(2.6371173e-05 2.3021686e-10 3.7330238e-25 2.637118e-05 1.9551182e-27 2.6371177e-05)
(2.6188587e-05 1.4134761e-10 2.2492445e-25 2.6188591e-05 9.6399165e-28 2.6188589e-05)
(2.5993601e-05 1.0733241e-10 -2.3358731e-33 2.5993602e-05 -8.8361488e-30 2.5993601e-05)
(2.5785282e-05 1.1596326e-10 -8.8748421e-32 2.578528e-05 8.2169947e-30 2.5785281e-05)
(2.5562635e-05 1.691923e-10 1.032389e-31 2.5562629e-05 -3.8349397e-30 2.5562632e-05)
(2.532454e-05 2.9063011e-10 9.2681566e-26 2.5324529e-05 8.2810179e-24 2.5324535e-05)