/*--------------------------------*- C++ -*----------------------------------*\
| =========                 |                                                 |
| \\      /  F ield         | OpenFOAM: The Open Source CFD Toolbox           |
|  \\    /   O peration     | Version:  2.4.0                                 |
|   \\  /    A nd           | Web:      www.OpenFOAM.org                      |
|    \\/     M anipulation  |                                                 |
\*---------------------------------------------------------------------------*/
FoamFile
{
    version     2.0;
    format      ascii;
    class       volScalarField;
    location    "150";
    object      epsilon;
}
// * * * * * * * * * * * * * * * * * * * * * * * * * * * * * * * * * * * * * //

dimensions      [0 2 -3 0 0 0 0];

internalField   nonuniform List<scalar> 
32000
(
11.406425
2.0974445
8.6581475
1.9156353
1.2465253
0.017836348
0.064708836
0.0019008603
0.0099062394
0.0041806877
0.0042676203
0.0031337586
0.0026555569
0.0021963945
0.0018720081
0.001614483
0.0014181803
0.0012745802
0.0011666917
0.0010786467
0.0010025281
0.0009352631
0.00087388211
0.00081687939
0.00076241869
0.0007096309
0.00065597135
0.00060121218
0.00054817675
0.0004987478
0.00045329493
0.00041182488
0.00037430525
0.00034063638
0.00031094974
0.00028594507
0.00026622107
0.00025070193
0.00023818453
0.00022838459
0.00022142741
0.00021757798
0.0002173797
0.00022156724
0.00023202632
0.00025144171
0.00029646206
0.00035213619
0.00039062094
0.00042410457
0.00045343759
0.00048010335
0.00050443984
0.00052686006
0.00054759241
0.00056683539
0.00058474076
0.00060143606
0.00061702659
0.0006316043
0.0006452505
0.00065803566
0.00067002271
0.00068126854
0.00069182407
0.00070173518
0.00071104447
0.00071979023
0.00072800708
0.00073572733
0.00074298055
0.00074979475
0.00075619426
0.00076220319
0.00076784269
0.00077313247
0.00077809417
0.00078274275
0.00078710159
0.00079117976
0.00079500137
0.00079856407
0.00080186292
0.00080492123
0.00080774581
0.00081035285
0.00081274939
0.00081495488
0.00081691427
0.0008187569
0.00082038578
0.00082183604
0.00082311295
0.00082422003
0.00082516019
0.00082593689
0.00082655199
0.0008270074
0.00082730457
0.00082744312
0.00082742209
0.00082724948
0.00082692035
0.00082642978
0.00082577932
0.00082496695
0.0008239902
0.00082284619
0.00082153173
0.00082004282
0.00081837474
0.00081652279
0.00081448124
0.00081224369
0.00080980358
0.00080715325
0.00080428446
0.00080118851
0.0007978553
0.00079427436
0.00079043442
0.00078632275
0.00078192616
0.00077723029
0.0007722189
0.00076687534
0.0007611816
0.00075511724
0.00074866141
0.00074179105
0.00073448021
0.00072670242
0.00071842854
0.00070962543
0.00070025881
0.00069029062
0.00067967848
0.00066837719
0.00065633582
0.00064349807
0.00062980148
0.00061517608
0.00059954217
0.00058280925
0.00056487118
0.00054560189
0.00052485275
0.0005024261
0.00047809549
0.00045145123
0.00042215877
0.00038873488
0.00035033563
0.00029493232
0.00025021228
0.00023100053
0.00022056198
0.00021630303
0.0002165366
0.00022023705
0.00022700663
0.00023682132
0.00024932206
0.00026486275
0.00028439564
0.00030907358
0.00033862536
0.00037192284
0.00040897518
0.00044987979
0.00049464068
0.0005433229
0.00059544869
0.00064928759
0.00070184138
0.0007529309
0.00080495293
0.00086096952
0.00092027588
0.00098527702
0.0010585555
0.0011430482
0.00124625
0.0013840432
0.0015734338
0.001818035
0.0021369139
0.0025390761
0.0031177162
0.0037232591
0.0051505567
0.0051204278
0.011521446
0.0024643335
0.060970213
0.01710909
1.1542705
2.0587134
9.4512025
2.1628997
6.7090957
1.4768891
5.2579519
1.360103
0.91166422
0.020161695
0.05562194
0.0020419739
0.0090199159
0.0039201634
0.0039778541
0.0029440942
0.0024992067
0.0020729676
0.0017697232
0.0015283222
0.0013435839
0.0012078403
0.0011055911
0.0010221091
0.00094993019
0.00088617608
0.00082806148
0.00077413228
0.00072268662
0.00067288112
0.00062233143
0.00057072665
0.00052063685
0.00047384946
0.00043075327
0.00039139872
0.00035577511
0.00032378452
0.0002955454
0.0002717082
0.00025284285
0.00023796923
0.00022596093
0.00021653518
0.00020979837
0.00020599031
0.00020561023
0.00020933413
0.00021889767
0.00023677221
0.00027807264
0.00032930336
0.00036511368
0.00039615883
0.00042330563
0.00044791438
0.00047031939
0.00049090366
0.00050988526
0.00052744865
0.00054374004
0.00055889171
0.00057303232
0.00058627722
0.00059870242
0.00061035668
0.00062128758
0.00063154406
0.00064117161
0.0006502114
0.00065870128
0.00066667503
0.00067416297
0.00068119355
0.00068779326
0.00069398804
0.00069980147
0.00070525787
0.00071038015
0.00071519113
0.00071971685
0.00072397899
0.00072800748
0.00073180449
0.00073539826
0.00073879521
0.0007419896
0.00074498835
0.00074776408
0.00075026559
0.0007524886
0.00075451242
0.00075628685
0.00075798955
0.00075952867
0.00076086224
0.00076197367
0.00076289539
0.00076367133
0.00076433206
0.00076488615
0.00076532722
0.00076564195
0.00076581593
0.0007658375
0.00076570565
0.00076541082
0.00076494496
0.00076430597
0.00076348921
0.00076249003
0.00076130363
0.0007599258
0.0007583525
0.00075657969
0.00075460405
0.00075242201
0.00075002953
0.00074742249
0.00074459496
0.00074153903
0.00073824515
0.00073470042
0.00073088877
0.00072680342
0.0007224416
0.00071779023
0.00071283755
0.00070757398
0.0007020005
0.00069613676
0.00069005463
0.00068390339
0.00067776174
0.00067142796
0.00066495827
0.00065864125
0.00065253956
0.00064645989
0.00063986027
0.00063235776
0.00062355106
0.00061299857
0.00060059871
0.00058703879
0.00057321493
0.00055855002
0.00054196853
0.00052364681
0.0005042551
0.00048430267
0.00046412704
0.00044317565
0.00042040955
0.00039482611
0.00036492286
0.00033016415
0.00028002221
0.00023879989
0.00022030922
0.00021021579
0.00020608995
0.000206392
0.00021013775
0.00021690383
0.00022662796
0.00023895429
0.00025418502
0.00027322314
0.00029707825
0.00032542171
0.00035720977
0.00039244365
0.00043119568
0.00047345147
0.00051922921
0.00056802556
0.00061820826
0.0006671655
0.00071490795
0.00076371073
0.00081628514
0.00087205439
0.00093325879
0.0010022884
0.0010819206
0.0011791315
0.0013083462
0.0014840386
0.0017109501
0.0020060835
0.0023755382
0.0029017454
0.0034515268
0.0047172372
0.0047243568
0.010216972
0.0026907498
0.051047587
0.017323766
0.8390067
1.4386926
5.6779888
1.5175728
4.0784717
1.0533951
3.2830317
0.97706537
0.6714641
0.021734999
0.047654046
0.0021472324
0.0081797865
0.0036642838
0.0036957326
0.0027576406
0.0023452011
0.0019509656
0.0016684308
0.0014428821
0.0012695764
0.0011416378
0.0010449991
0.00096605549
0.00089779195
0.00083752633
0.00078265558
0.00073177533
0.00068331731
0.00063646318
0.00058898599
0.00054049608
0.00049331587
0.00044913824
0.000408371
0.00037111049
0.00033736635
0.0003070422
0.0002802431
0.00025757065
0.00023956533
0.0002253403
0.00021384505
0.00020479854
0.00019828848
0.00019452997
0.0001939791
0.00019725427
0.0002059447
0.00022231054
0.00025998883
0.00030693815
0.00034020052
0.00036892922
0.00039400225
0.0004166596
0.00043723167
0.00045607194
0.00047338843
0.0004893519
0.00050410301
0.00051777973
0.000530536
0.00054251244
0.00055377993
0.00056436459
0.00057429817
0.00058362147
0.00059237464
0.00060059413
0.00060831313
0.0006155609
0.00062236349
0.0006287455
0.0006347304
0.00064034215
0.00064560371
0.00065053985
0.00065517542
0.00065953668
0.00066365445
0.00066755759
0.00067128333
0.00067482834
0.00067822437
0.00068148691
0.00068460912
0.00068758053
0.00069033709
0.00069275564
0.0006948205
0.00069667558
0.00069827519
0.00069985053
0.00070131299
0.0007025388
0.00070348844
0.00070422576
0.0007048384
0.00070538564
0.00070588298
0.00070631507
0.00070665278
0.00070686671
0.00070693381
0.00070684356
0.00070658144
0.00070613597
0.00070550115
0.00070466956
0.00070363418
0.00070238819
0.00070092626
0.00069924436
0.00069733916
0.00069520885
0.00069285218
0.00069026756
0.00068745353
0.00068440589
0.00068111708
0.00067757652
0.00067376829
0.00066967009
0.00066528314
0.0006606131
0.00065564635
0.00065037373
0.00064479267
0.00063892251
0.00063282213
0.00062665915
0.00062075887
0.00061530867
0.00060992912
0.00060475437
0.00060040003
0.00059703873
0.00059431949
0.0005911924
0.00058690183
0.00058065671
0.00057159206
0.00055954407
0.00054598732
0.00053285968
0.00051907485
0.00050251065
0.00048361133
0.00046389468
0.00044458997
0.00042657646
0.00040898495
0.00039007049
0.00036815694
0.00034170821
0.00031050512
0.00026549356
0.00022769623
0.00020989918
0.0002001157
0.00019610128
0.00019646437
0.0002002591
0.00020703202
0.00021667995
0.00022884429
0.00024377427
0.00026232788
0.00028536778
0.00031250879
0.00034279109
0.00037620792
0.00041280706
0.00045255583
0.00049542611
0.00054089125
0.000587422
0.00063279212
0.00067719474
0.000722778
0.0007719108
0.00082414066
0.00088154254
0.00094631513
0.0010210741
0.0011122685
0.0012328633
0.0013948321
0.001604158
0.0018758218
0.0022130041
0.002687886
0.003182937
0.0042937433
0.0043337557
0.0089809271
0.0028688439
0.042281763
0.017076333
0.61105909
1.0150162
3.5147807
1.0786905
2.5484598
0.7600255
2.0987455
0.709483
0.49795698
0.022687679
0.040704897
0.002218621
0.0073870735
0.003413801
0.003422063
0.0025749521
0.002193999
0.0018307468
0.0015684238
0.0013584061
0.001196367
0.0010761599
0.00098508753
0.00091064513
0.00084626177
0.0007894524
0.00073779393
0.00068992965
0.00064442379
0.00060048217
0.00055603172
0.00051060844
0.00046629324
0.00042468557
0.00038621199
0.00035101751
0.00031913016
0.00029045525
0.00026508417
0.00024357019
0.00022642391
0.00021284885
0.00020186933
0.00019320632
0.00018692928
0.00018322904
0.00018251978
0.00018536357
0.00019320751
0.00020810346
0.0002422751
0.00028511894
0.00031595997
0.00034249822
0.00036561356
0.00038642867
0.0004052694
0.00042246025
0.00043819949
0.00045264477
0.00046593097
0.00047820277
0.00048964137
0.00050041467
0.00051058869
0.00052016609
0.00052916213
0.00053760936
0.00054554261
0.00055299368
0.0005599911
0.0005665597
0.00057272122
0.00057849646
0.00058390592
0.0005889717
0.00059371623
0.00059816494
0.00060234484
0.00060628588
0.00061002405
0.00061359579
0.00061704623
0.0006203692
0.00062359882
0.00062675987
0.00062984405
0.00063282245
0.00063559152
0.00063795101
0.00063987419
0.00064157405
0.00064300871
0.00064446943
0.0006458678
0.00064699335
0.00064778346
0.00064833661
0.00064878699
0.00064922403
0.00064967005
0.00065009973
0.00065046687
0.00065072603
0.00065084199
0.00065079423
0.00065056287
0.0006501327
0.0006494936
0.00064863511
0.00064754774
0.00064622249
0.00064465299
0.00064283526
0.00064076684
0.00063844765
0.00063587897
0.0006330619
0.00062999777
0.00062668428
0.00062311412
0.00061927564
0.00061514957
0.00061070639
0.00060596324
0.00060092821
0.0005955874
0.00058993444
0.00058397403
0.00057774441
0.00057134455
0.00056503891
0.00055933078
0.00055452793
0.00055007897
0.00054617534
0.00054376628
0.00054315605
0.00054384861
0.00054430236
0.00054334804
0.00053976666
0.00053222849
0.00052047201
0.00050678243
0.00049423272
0.00048123401
0.0004645525
0.00044487329
0.00042461812
0.00040580264
0.00038984545
0.00037558171
0.00036047266
0.00034218069
0.00031911645
0.00029137676
0.00025133763
0.00021689621
0.00019979385
0.00019029538
0.00018637621
0.00018679674
0.00019064761
0.00019744091
0.00020702963
0.00021904144
0.00023367721
0.00025175237
0.00027397916
0.00029991835
0.00032869318
0.00036028917
0.00039473053
0.00043196659
0.00047192459
0.00051405896
0.00055694998
0.0005987531
0.0006398318
0.00068220164
0.00072790193
0.000776598
0.00083019959
0.00089071582
0.00096059704
0.0010457574
0.0011577042
0.0013059603
0.0014978634
0.0017464064
0.0020518859
0.0024767985
0.0029184062
0.0038820989
0.0039494955
0.007822337
0.0029849898
0.034636141
0.016446206
0.44550448
0.72220711
2.2311537
0.77585595
1.6298547
0.55411636
1.3689689
0.52035005
0.37182509
0.023128371
0.034678726
0.0022584244
0.0066426665
0.0031694517
0.0031576063
0.002396573
0.0020460546
0.0017126709
0.0014699978
0.0012751409
0.0011241677
0.0010115956
0.00092602934
0.00085603809
0.00079548836
0.000742093
0.00069360619
0.0006487165
0.00060611931
0.00056504357
0.00052356604
0.00048115273
0.00043964971
0.00040056417
0.00036434157
0.0003311784
0.0003011188
0.00027407031
0.00025011046
0.00022974493
0.00021345412
0.00020052855
0.000190066
0.00018178986
0.00017575181
0.00017211904
0.00017126515
0.00017369735
0.00018072555
0.00019419726
0.00022499499
0.00026392152
0.00029246648
0.0003169428
0.00033821911
0.00035730376
0.00037451708
0.00039015509
0.00040440643
0.00041741684
0.00042931469
0.0004402525
0.00045044071
0.00046007654
0.00046922162
0.0004778544
0.00048597304
0.00049360166
0.00050076978
0.00050750466
0.00051383022
0.00051976686
0.00052533208
0.00053054289
0.00053541687
0.00053997432
0.00054423731
0.000548232
0.00055198771
0.00055553826
0.00055892501
0.0005621923
0.00056539357
0.00056852359
0.0005716174
0.00057470943
0.00057778979
0.00058081034
0.00058362537
0.00058595269
0.00058775481
0.0005893163
0.00059059671
0.00059195539
0.00059330053
0.00059433047
0.0005949609
0.00059532854
0.00059561714
0.00059594746
0.0005963481
0.00059678242
0.0005971857
0.00059749532
0.00059766302
0.00059765786
0.0005974542
0.00059703274
0.00059637901
0.00059547935
0.00059432164
0.00059289474
0.00059119128
0.00058920753
0.00058694216
0.00058439711
0.00058157651
0.00057848444
0.00057512524
0.00057149863
0.00056759764
0.00056340941
0.00055891114
0.00055406648
0.00054891701
0.00054346541
0.00053769847
0.00053161291
0.00052522111
0.00051858055
0.00051183026
0.0005053297
0.00049975588
0.00049555163
0.00049200843
0.0004893382
0.00048882675
0.00049093718
0.00049505495
0.00049918578
0.00050170163
0.00050091606
0.00049498573
0.00048349627
0.00046954696
0.00045744461
0.00044512142
0.00042817956
0.00040751849
0.0003865196
0.00036804179
0.00035402715
0.00034303741
0.00033165931
0.00031692535
0.00029716956
0.00027279392
0.00023754353
0.00020639085
0.00019001231
0.00018078613
0.00017695275
0.00017743171
0.00018134975
0.00018818019
0.00019772895
0.0002095911
0.00022393677
0.00024153368
0.00026294238
0.00028767374
0.00031493289
0.00034469812
0.00037697161
0.00041168538
0.00044872491
0.00048753226
0.00052680529
0.00056507336
0.00060285379
0.00064202372
0.00068431021
0.00072948697
0.00077929941
0.0008355697
0.00090057818
0.00097969618
0.0010829837
0.0012175824
0.0013922876
0.0016181421
0.0018926361
0.0022692024
0.0026589489
0.0034843893
0.0035728176
0.0067485817
0.003030578
0.028056611
0.015506412
0.3248559
0.51778116
1.447218
0.56422682
1.0629792
0.40781677
0.90844564
0.385198
0.27958853
0.023149588
0.02948468
0.0022692246
0.0059470925
0.0029319445
0.0029030579
0.002223025
0.0019018063
0.0015970897
0.0013734441
0.0011933302
0.0010531877
0.00094813124
0.0008679948
0.00080239165
0.0007456177
0.00069558416
0.00065021935
0.00060825459
0.00056851476
0.00053025072
0.00049168459
0.00045221664
0.00041346507
0.00037684621
0.00034282487
0.00031165149
0.00028338428
0.00025793376
0.00023536348
0.00021613255
0.00020069098
0.00018841247
0.00017846662
0.00017057974
0.00016478632
0.00016123059
0.00016024709
0.00016228984
0.00016853713
0.00018063702
0.0002082101
0.0002434177
0.00026978921
0.00029233316
0.00031189047
0.00032935817
0.00034504953
0.0003592326
0.00037208625
0.00038374628
0.00039433313
0.00040400834
0.00041301358
0.00042157742
0.00042975773
0.00043750815
0.0004448092
0.00045167641
0.00045813404
0.00046420484
0.00046990824
0.00047526026
0.00048027416
0.00048496322
0.00048934211
0.00049342943
0.0004972469
0.00050082152
0.00050418492
0.00050737476
0.00051043778
0.00051342634
0.00051640263
0.00051936601
0.00052235217
0.0005254053
0.00052851423
0.00053161139
0.00053450707
0.00053683308
0.00053854136
0.00053998709
0.00054112588
0.00054239485
0.00054369455
0.00054462942
0.00054509655
0.00054527517
0.00054540156
0.00054562847
0.00054598973
0.00054643564
0.00054688133
0.00054724578
0.00054746687
0.00054750279
0.0005473218
0.00054690016
0.00054621889
0.00054526097
0.0005440116
0.0005424576
0.00054059079
0.00053840801
0.00053590944
0.00053309946
0.00052998545
0.00052657486
0.00052287535
0.00051888882
0.00051460875
0.0005100211
0.00050509951
0.00049980521
0.00049420683
0.00048829739
0.00048206462
0.00047550891
0.00046865087
0.00046156728
0.00045443605
0.00044770589
0.00044221533
0.00043855831
0.00043589296
0.00043439984
0.00043569903
0.00044044376
0.00044794389
0.00045581677
0.00046193179
0.00046409732
0.00045990233
0.00044870378
0.00043438954
0.0004225916
0.00041080675
0.00039344969
0.00037161612
0.00034969613
0.0003314262
0.00031923838
0.00031143571
0.00030367733
0.0002924169
0.00027588569
0.00025476803
0.0002240991
0.00019616756
0.00018056836
0.00017161587
0.00016786654
0.00016841016
0.00017241043
0.00017929781
0.0001888268
0.00020053247
0.00021458961
0.0002317009
0.00025227774
0.0002757873
0.00030151491
0.00032943259
0.00035952251
0.00039170054
0.00042581477
0.00046130353
0.00049699127
0.00053176919
0.00056628749
0.0006022796
0.00064118148
0.00068286317
0.00072890739
0.00078095279
0.00084110381
0.00091418194
0.0010088192
0.0011298672
0.0012876683
0.0014913592
0.0017357452
0.0020658674
0.0024056603
0.0031026767
0.0032053056
0.0057650036
0.0030024554
0.022472878
0.014328191
0.23672709
0.37373597
0.95637758
0.4145381
0.70490036
0.30268451
0.6118368
0.28761884
0.21175596
0.022831758
0.025037276
0.0022539042
0.0053005087
0.0027019524
0.0026590394
0.0020548003
0.0017616713
0.0014843433
0.0012790464
0.0011132128
0.00098363193
0.00088594871
0.00081114958
0.00074985853
0.00069679138
0.00065005758
0.00060775626
0.00056865867
0.0005317173
0.00049620361
0.00046048006
0.00042388543
0.00038781727
0.00035360248
0.00032172612
0.00029249429
0.00026597786
0.00024209124
0.00022088402
0.00020276997
0.00018816866
0.00017653277
0.00016710176
0.00015960544
0.00015406186
0.00015059304
0.00014949611
0.00015117377
0.00015667884
0.00016746604
0.00019197897
0.00022367423
0.00024799112
0.00026873172
0.00028669024
0.00030265523
0.0003169308
0.00032975757
0.0003413044
0.00035169877
0.00036105238
0.00036953659
0.00037742602
0.00038498263
0.00039226132
0.00039919063
0.00040573298
0.00041189514
0.00041769621
0.00042315452
0.00042828507
0.00043309955
0.00043760706
0.00044181716
0.00044574167
0.00044939749
0.00045280603
0.00045599506
0.00045899836
0.00046185717
0.0004646234
0.00046735717
0.00047012976
0.00047294883
0.0004758513
0.00047889136
0.00048205748
0.00048526336
0.00048827462
0.00049063463
0.00049228511
0.00049364578
0.0004946588
0.00049585007
0.00049710753
0.00049794265
0.00049823844
0.00049822186
0.0004981844
0.00049831077
0.00049863828
0.00049910204
0.00049959524
0.00050001725
0.0005002913
0.00050036438
0.00050019829
0.0004997646
0.00049903971
0.00049800316
0.00049663756
0.00049492788
0.00049286553
0.00049044837
0.0004876786
0.0004845636
0.00048111458
0.00047734277
0.00047325955
0.00046886927
0.0004641661
0.00045913504
0.00045374618
0.00044796767
0.00044189143
0.00043549889
0.00042877943
0.0004217379
0.0004144038
0.00040687283
0.00039935908
0.00039239019
0.00038694476
0.0003837831
0.00038196139
0.00038156588
0.00038454108
0.00039176353
0.00040252815
0.00041415532
0.00042397615
0.00042926098
0.00042697491
0.00041615064
0.00040140138
0.00038975255
0.00037833369
0.0003603951
0.00033722304
0.00031425232
0.00029609719
0.0002856231
0.00028087501
0.00027657974
0.00026868143
0.00025528063
0.00023730832
0.00021099301
0.00018621247
0.00017147013
0.00016280831
0.00015915012
0.00015977039
0.00016387216
0.000170839
0.00018036316
0.00019190048
0.00020566406
0.00022227286
0.00024199375
0.00026425828
0.00028842999
0.00031447592
0.00034236089
0.00037198648
0.00040316926
0.00043535434
0.00046750227
0.00049884882
0.00053015255
0.00056299884
0.00059855669
0.00063677828
0.00067908611
0.00072693932
0.00078225966
0.00084931357
0.00093533436
0.0010429983
0.0011842655
0.0013664211
0.0015817464
0.0018676131
0.002159708
0.0027389483
0.0028488663
0.0048746551
0.0029029017
0.017801204
0.012982345
0.17226875
0.27136551
0.64236139
0.30744786
0.47418527
0.22633715
0.41744297
0.21647531
0.16159339
0.0222452
0.021256925
0.0022156389
0.0047027029
0.0024801058
0.0024260892
0.001892356
0.0016260407
0.0013747564
0.0011870777
0.0010350192
0.00091569828
0.00082522317
0.00075565293
0.00069858524
0.00064914498
0.00060563923
0.00056633419
0.00053003825
0.00049582915
0.00046299761
0.00043004106
0.00039624092
0.00036278148
0.00033090158
0.000301108
0.00027376293
0.00024894957
0.00022658728
0.00020671178
0.00018969299
0.0001759202
0.00016492043
0.00015600074
0.00014889512
0.00014360602
0.00014023413
0.00013904096
0.00014037996
0.00014518509
0.00015472511
0.00017635599
0.00020475155
0.00022712808
0.00024619221
0.00026267108
0.00027724738
0.0002902133
0.00030178249
0.00031211351
0.00032132674
0.00032952499
0.00033688968
0.00034372992
0.00035034287
0.00035678152
0.00036294934
0.00036879033
0.00037430246
0.0003794997
0.0003843961
0.00038900233
0.00039332581
0.00039737155
0.0004011454
0.00040465639
0.00040791972
0.00041095641
0.00041379481
0.00041647051
0.00041902782
0.0004215232
0.00042402401
0.0004266106
0.00042930248
0.00043213948
0.00043518621
0.00043843239
0.0004417749
0.00044493563
0.0004473694
0.00044900843
0.00045032493
0.00045123258
0.00045235747
0.0004535706
0.00045429458
0.00045440579
0.00045418488
0.00045398066
0.00045400874
0.00045430737
0.00045479395
0.00045533789
0.00045581778
0.00045614149
0.0004562446
0.00045608225
0.00045562107
0.00045483286
0.0004536938
0.00045218407
0.00045028727
0.00044799491
0.00044530648
0.00044222695
0.00043876743
0.00043494355
0.00043077097
0.00042626522
0.00042143349
0.00041627113
0.00041076256
0.00040487414
0.00039859753
0.0003920338
0.00038515528
0.00037795395
0.00037044015
0.00036265294
0.00035470593
0.00034684482
0.00033966084
0.00033424159
0.00033152501
0.0003305018
0.00033109719
0.00033555975
0.00034502098
0.00035883906
0.00037415717
0.00038774806
0.00039631908
0.00039615706
0.00038585846
0.00037065259
0.00035898617
0.00034771979
0.00032902629
0.00030438921
0.00028030545
0.00026222289
0.0002533544
0.0002514707
0.00025042844
0.00024574755
0.00023536958
0.00022042327
0.00019821682
0.00017651102
0.00016272017
0.00015438221
0.00015083194
0.00015154729
0.00015577413
0.00016284515
0.00017236891
0.0001837215
0.00019717795
0.00021325597
0.00023208514
0.00025307122
0.00027565356
0.00029979611
0.00032544957
0.00035250392
0.00038075167
0.00040965667
0.00043832497
0.00046631376
0.00049446285
0.00052420667
0.0005564736
0.00059128191
0.00062989729
0.00067360395
0.00072413354
0.00078519504
0.00086266348
0.00095718054
0.0010823687
0.0012437303
0.0014312205
0.0016753078
0.001922324
0.0023950709
0.002505705
0.004078276
0.0027391499
0.013948169
0.011538113
0.12510926
0.19803227
0.43766933
0.2300015
0.3230089
0.17035106
0.28811605
0.16412156
0.12428989
0.021450831
0.018070469
0.0021578925
0.0041530998
0.0022669872
0.0022046565
0.0017361083
0.0014952745
0.001268634
0.001097797
0.00095896986
0.00084957572
0.00076612127
0.00070165587
0.00064871033
0.00060280652
0.00056244782
0.00052606352
0.00049249622
0.0004609463
0.00043072234
0.00040045102
0.00036936046
0.00033842915
0.00030880914
0.00028103097
0.00025551152
0.00023234771
0.00021146484
0.00019288502
0.00017693603
0.0001639772
0.00015360496
0.00014519132
0.00013847529
0.00013344465
0.00013017973
0.0001289083
0.00012993686
0.00013408755
0.00014245186
0.00016139037
0.00018670275
0.00020724807
0.00022475892
0.00023987501
0.00025317536
0.00026493695
0.00027534681
0.00028455264
0.0002926687
0.00029978931
0.00030610566
0.00031196255
0.00031769388
0.000323352
0.00032881574
0.00033401066
0.00033892589
0.00034357041
0.00034795409
0.00035208337
0.00035596152
0.0003595895
0.00036296954
0.00036610788
0.00036901797
0.00037172029
0.00037424347
0.00037662433
0.0003789094
0.00038115873
0.000383446
0.00038586033
0.00038843604
0.00039121877
0.00039428421
0.00039762581
0.00040112681
0.00040446826
0.00040701935
0.00040870446
0.00041002944
0.00041085782
0.00041192671
0.00041308719
0.00041368083
0.00041358851
0.00041315116
0.00041277606
0.0004127074
0.00041298098
0.00041349357
0.00041408892
0.00041462385
0.00041499032
0.00041511252
0.00041493876
0.00041443067
0.00041355559
0.00041228658
0.0004106018
0.00040848407
0.00040592581
0.00040292898
0.00039950222
0.0003956612
0.00039142685
0.00038681992
0.00038186069
0.00037655979
0.0003709144
0.00036490923
0.00035850509
0.00035174512
0.00034470972
0.00033737105
0.00032972504
0.00032178862
0.00031361083
0.00030532129
0.0002971907
0.0002898536
0.00028446671
0.00028214821
0.00028186178
0.00028331204
0.00028901643
0.0003003872
0.00031693904
0.00033578593
0.00035314674
0.00036515149
0.00036736053
0.00035781107
0.00034218807
0.00033032891
0.00031895804
0.0002993376
0.00027316386
0.00024798989
0.00023000045
0.00022263369
0.00022335645
0.00022529695
0.00022364923
0.00021616932
0.00020412227
0.0001857672
0.00016705055
0.00015431613
0.00014635095
0.00014293577
0.00014377159
0.00014815138
0.00015535273
0.00016486291
0.00017601128
0.00018913626
0.00020464202
0.00022253086
0.00024219424
0.00026314465
0.00028534534
0.00030873685
0.00033320116
0.0003585157
0.00038417555
0.00040944136
0.0004341618
0.00045922956
0.00048592729
0.00051496996
0.00054642486
0.00058140526
0.00062102534
0.00066681939
0.00072194037
0.00079095783
0.00087264701
0.00098230491
0.0011237362
0.0012848007
0.0014898662
0.0016947925
0.0020727482
0.0021782666
0.0033744204
0.00252245
0.010814928
0.010060562
0.090628916
0.14511086
0.30202387
0.17341134
0.22252113
0.12892742
0.20096312
0.12525382
0.096386598
0.020499989
0.015411768
0.0020844131
0.0036507741
0.0020631258
0.0019950965
0.0015864277
0.0013696972
0.0011662583
0.0010114469
0.00088527244
0.00078544218
0.00070879929
0.0006492995
0.0006003629
0.00055789508
0.00052059353
0.00048704642
0.00045612772
0.00042715739
0.00039946055
0.0003717871
0.00034331588
0.00031482712
0.00028738694
0.00026155255
0.00023779157
0.00021621838
0.00019676491
0.00017944017
0.00016453176
0.00015236959
0.00014261414
0.00013469953
0.00012837064
0.00012360161
0.00012045352
0.00011912237
0.00011987019
0.0001234147
0.00013068007
0.00014712504
0.00016957253
0.00018839056
0.00020446616
0.00021833278
0.00023046767
0.00024112868
0.00025047639
0.00025864688
0.00026574877
0.00027186912
0.00027720791
0.00028214636
0.00028705633
0.00029199094
0.00029680538
0.00030140697
0.00030577613
0.00030991697
0.00031383533
0.00031753357
0.00032101088
0.00032426426
0.00032729241
0.00033009874
0.00033269493
0.00033510065
0.00033734437
0.00033946332
0.00034150508
0.00034353196
0.00034562258
0.00034787417
0.00035033812
0.0003530698
0.00035615708
0.00035960042
0.000363274
0.00036682309
0.00036953762
0.00037133752
0.00037273616
0.0003735175
0.00037454027
0.00037563226
0.0003760678
0.00037574724
0.00037507863
0.00037452766
0.00037436321
0.00037461432
0.00037515383
0.00037579812
0.00037638145
0.00037677966
0.00037690568
0.00037670108
0.00037612253
0.00037513328
0.00037370366
0.00037181047
0.00036943669
0.00036657659
0.0003632357
0.00035942745
0.00035517314
0.00035049992
0.00034543447
0.00034000258
0.00033421911
0.00032808409
0.00032158407
0.00031467154
0.00030747659
0.00030001645
0.00029227797
0.00028426241
0.00027599428
0.00026753252
0.00025901978
0.00025074294
0.00024335554
0.00023803677
0.00023607359
0.00023643985
0.00023858078
0.00024522721
0.00025808698
0.00027693373
0.00029902687
0.00032007001
0.00033561529
0.00034045882
0.00033195226
0.00031602327
0.00030379374
0.00029202026
0.00027131385
0.00024360169
0.00021746006
0.00019965484
0.00019368613
0.00019668416
0.00020127285
0.00020242882
0.00019770067
0.00018841751
0.00017364784
0.00015782256
0.00014625203
0.00013872254
0.00013548021
0.00013646929
0.00014103401
0.00014839221
0.00015784875
0.00016877281
0.00018152896
0.00019640617
0.0002132927
0.00023157828
0.00025084568
0.00027106053
0.00029215785
0.00031401625
0.00033640814
0.00035887199
0.00038083201
0.0004023903
0.00042446474
0.00044818754
0.00047408741
0.00050226336
0.00053368137
0.00056929106
0.00061042275
0.00065968002
0.00072039298
0.00078966803
0.00088444709
0.0010069414
0.0011431751
0.0013122436
0.0014784296
0.0017734751
0.0018691324
0.0027597145
0.0022667868
0.0083015545
0.0086076241
0.06545698
0.1066599
0.21080569
0.13164758
0.15493495
0.098031053
0.14157627
0.096157402
0.075382878
0.01943649
0.013219643
0.0019992222
0.0031944686
0.001868993
0.0017976669
0.0014436353
0.0012495944
0.0010678855
0.00092825061
0.00081411955
0.00072346271
0.00065340146
0.0005987135
0.00055366117
0.00051451942
0.00048017676
0.00044937576
0.00042101902
0.00039454267
0.00036928708
0.00034411914
0.00031817253
0.00029203665
0.00026669202
0.00024272685
0.00022065142
0.00020060491
0.00018252611
0.00016641156
0.0001525109
0.00014112531
0.00013197381
0.00012454944
0.00011860381
0.00011409861
0.00011107682
0.00010970472
0.00011020261
0.00011319138
0.00011943906
0.00013359571
0.00015339634
0.00017058591
0.00018533787
0.00019806362
0.00020914025
0.0002188021
0.00022718325
0.00023440709
0.00024057653
0.00024577349
0.00025020503
0.000254289
0.00025843588
0.00026270128
0.00026691817
0.00027097626
0.00027484747
0.00027853127
0.00028202962
0.0002853409
0.00028846038
0.00029138123
0.00029409861
0.00029661318
0.00029893467
0.00030108168
0.00030308188
0.00030497186
0.00030679884
0.00030862557
0.00031053388
0.00031262807
0.00031497792
0.00031765333
0.0003207559
0.00032429717
0.00032814818
0.00033192572
0.00033485075
0.00033684446
0.00033839425
0.00033916706
0.00034015275
0.00034115204
0.00034139294
0.00034081398
0.00033989732
0.00033916513
0.00033890549
0.00033913529
0.00033970001
0.00034038715
0.00034100803
0.0003414224
0.00034153247
0.00034127323
0.00034059671
0.00033946264
0.00033783929
0.00033570303
0.00033303817
0.00032984212
0.00032612529
0.00032190722
0.00031721607
0.00031208631
0.00030655154
0.00030064397
0.00029438372
0.00028777503
0.00028080915
0.00027344839
0.00026588168
0.00025807945
0.00025004006
0.00024177133
0.00023330583
0.00022471154
0.00021613981
0.00020788301
0.00020058688
0.0001954033
0.00019375643
0.00019466581
0.00019730981
0.00020455404
0.0002183996
0.00023898131
0.0002639005
0.00028842858
0.00030755659
0.00031529365
0.00030818493
0.00029214003
0.00027937044