/*--------------------------------*- C++ -*----------------------------------*\
| =========                 |                                                 |
| \\      /  F ield         | OpenFOAM: The Open Source CFD Toolbox           |
|  \\    /   O peration     | Version:  2.4.0                                 |
|   \\  /    A nd           | Web:      www.OpenFOAM.org                      |
|    \\/     M anipulation  |                                                 |
\*---------------------------------------------------------------------------*/
FoamFile
{
    version     2.0;
    format      ascii;
    class       surfaceScalarField;
    location    "150";
    object      phi;
}
// * * * * * * * * * * * * * * * * * * * * * * * * * * * * * * * * * * * * * //

dimensions      [0 3 -1 0 0 0 0];

internalField   nonuniform List<scalar> 
63640
(
5.1544983e-07
-4.640324e-08
5.2227318e-07
-6.8232948e-09
5.2435779e-07
-2.0845215e-09
3.3677342e-07
1.8758449e-07
1.0918318e-07
2.2759034e-07
-1.1226319e-07
2.2144647e-07
-2.048846e-07
9.2621517e-08
-1.9505736e-07
-9.8271846e-09
-1.5835964e-07
-3.6697634e-08
-1.3514463e-07
-2.3214971e-08
-1.2224272e-07
-1.290187e-08
-1.1240572e-07
-9.8370036e-09
-1.0211785e-07
-1.0287855e-08
-9.0835353e-08
-1.1282507e-08
-7.8218931e-08
-1.2615942e-08
-6.5874259e-08
-1.2345053e-08
-5.6204246e-08
-9.6697403e-09
-4.8833762e-08
-7.370896e-09
-4.2896019e-08
-5.9376472e-09
-3.8222166e-08
-4.6740017e-09
-3.3986606e-08
-4.2355006e-09
-3.0361587e-08
-3.6249868e-09
-2.7476303e-08
-2.8852528e-09
-2.5016e-08
-2.4603134e-09
-2.3354138e-08
-1.6618636e-09
-2.2179578e-08
-1.1746002e-09
-2.1265639e-08
-9.1396903e-10
-1.9700112e-08
-1.5655886e-09
-1.6238348e-08
-3.4618037e-09
-9.9862416e-09
-6.2521707e-09
-7.4889977e-10
-9.2373935e-09
1.0970523e-08
-1.1719494e-08
2.461486e-08
-1.364429e-08
3.9842293e-08
-1.5227573e-08
5.6392788e-08
-1.6550404e-08
7.4043332e-08
-1.7650675e-08
9.2348343e-08
-1.8304897e-08
1.1059603e-07
-1.8247862e-08
1.2813907e-07
-1.7542951e-08
1.4451423e-07
-1.6375352e-08
1.592761e-07
-1.4761828e-08
1.722924e-07
-1.3016503e-08
1.83402e-07
-1.1109549e-08
1.9329413e-07
-9.8923056e-09
2.022305e-07
-8.9363453e-09
2.1476452e-07
-1.2534211e-08
2.2863534e-07
-1.3870783e-08
2.277171e-07
9.18066e-10
2.1848943e-07
9.227689e-09
2.0826765e-07
1.0221579e-08
1.9822751e-07
1.0040136e-08
1.9006708e-07
8.160268e-09
1.8446648e-07
5.6004421e-09
1.8225809e-07
2.2083479e-09
1.8379763e-07
-1.539693e-09
1.8934915e-07
-5.5515489e-09
1.9886218e-07
-9.513258e-09
2.1195383e-07
-1.3091632e-08
2.2739932e-07
-1.5445725e-08
2.4327442e-07
-1.5874985e-08
2.5801894e-07
-1.4744618e-08
2.7105931e-07
-1.3040395e-08
2.8248147e-07
-1.1422216e-08
2.9260359e-07
-1.0122214e-08
3.0182001e-07
-9.2165796e-09
3.1052432e-07
-8.7043277e-09
3.1912791e-07
-8.6037747e-09
3.2805884e-07
-8.9309067e-09
3.3779155e-07
-9.7328754e-09
3.4881251e-07
-1.1020901e-08
3.6157856e-07
-1.2766145e-08
3.7639742e-07
-1.4818847e-08
3.9332781e-07
-1.6930372e-08
4.1201849e-07
-1.8690826e-08
4.3153402e-07
-1.9515623e-08
4.5021127e-07
-1.8677348e-08
4.6557793e-07
-1.5366811e-08
4.7442651e-07
-8.8486274e-09
4.7318605e-07
1.2403208e-09
4.5838032e-07
1.4805701e-08
4.2731823e-07
3.1061895e-08
3.7911797e-07
4.8200256e-08
3.1558101e-07
6.3536657e-08
2.4207667e-07
7.3504479e-08
1.6896132e-07
7.3115188e-08
1.1226325e-07
5.6698192e-08
8.2058587e-08
3.0204702e-08
7.1851025e-08
1.0207383e-08
6.8272176e-08
3.5786718e-09
6.1378674e-08
6.8933561e-09
4.6201986e-08
1.5176485e-08
2.3062227e-08
2.3139386e-08
-5.9861205e-09
2.904817e-08
-3.9743789e-08
3.3756977e-08
-7.8068615e-08
3.8324924e-08
-1.21436e-07
4.3366828e-08
-1.7054255e-07
4.9106924e-08
-2.2597789e-07
5.5434482e-08
-2.8811734e-07
6.2139818e-08
-3.5708606e-07
6.8968096e-08
-4.3294003e-07
7.5854682e-08
-5.1548899e-07
8.2548641e-08
-6.0436452e-07
8.8875741e-08
-6.9908424e-07
9.4719261e-08
-7.9889428e-07
9.9810351e-08
-9.0279678e-07
1.0390204e-07
-1.0096705e-06
1.0687414e-07
-1.1181592e-06
1.0848814e-07
-1.2267317e-06
1.0857309e-07
-1.3338326e-06
1.0710063e-07
-1.4378249e-06
1.0399266e-07
-1.5370386e-06
9.9213425e-08
-1.6298624e-06
9.2823975e-08
-1.7146843e-06
8.4821689e-08
-1.790058e-06
7.5373943e-08
-1.8546863e-06
6.4628086e-08
-1.9072569e-06
5.2570665e-08
-1.9464542e-06
3.9197092e-08
-1.970866e-06
2.4411841e-08
-1.9786325e-06
7.7663826e-09
-1.9671911e-06
-1.1441325e-08
-1.9335103e-06
-3.3681385e-08
-1.8737781e-06
-5.9731841e-08
-1.7830107e-06
-9.076781e-08
-1.6546046e-06
-1.2840583e-07
-1.4800089e-06
-1.7459599e-07
-1.2483461e-06
-2.3166264e-07
-9.485303e-07
-2.9981706e-07
-5.9018024e-07
-3.5834908e-07
-2.200275e-07
-3.7015366e-07
1.4839314e-07
-3.6841955e-07
5.2261931e-07
-3.7422725e-07
8.5761735e-07
-3.3499712e-07
1.0875718e-06
-2.2995497e-07
1.1605279e-06
-7.2955227e-08
1.0609092e-06
9.9618982e-08
8.262182e-07
2.3469098e-07
5.3789053e-07
2.8832716e-07
2.8505646e-07
2.5283453e-07
1.3207406e-07
1.5298182e-07
1.0127816e-07
3.079678e-08
1.052988e-07
-4.0206509e-09
-4.7530446e-08
1.528294e-07
-3.5890996e-07
3.1137925e-07
-5.9393163e-07
2.3502201e-07
-5.8907002e-07
-4.862246e-09
-3.5295363e-07
-2.3611534e-07
-5.1052002e-09
-3.4784848e-07
3.095604e-07
-3.1466533e-07
4.9179802e-07
-1.8223736e-07
5.5514604e-07
-6.3348059e-08
5.7660478e-07
-2.1458847e-08
5.9820535e-07
-2.1600102e-08
6.1608438e-07
-1.7878811e-08
6.2278992e-07
-6.7053279e-09
6.1233846e-07
1.0451662e-08
5.8318124e-07
2.9157312e-08
5.322907e-07
5.0890775e-08
4.548452e-07
7.7445487e-08
3.5147139e-07
1.03374e-07
2.2867949e-07
1.2279188e-07
9.677927e-08
1.3190036e-07
-3.4886441e-08
1.3166575e-07
-1.6173281e-07
1.2684649e-07
-2.8468266e-07
1.2294991e-07
-4.0491562e-07
1.2023307e-07
-5.1730073e-07
1.1238517e-07
-6.1733825e-07
1.0003761e-07
-7.0298175e-07
8.5643584e-08
-7.7295069e-07
6.9969018e-08
-8.2689018e-07
5.3939549e-08
-8.6508752e-07
3.8197409e-08
-8.8701672e-07
2.1929265e-08
-8.8917893e-07
2.1622616e-09
-8.6914367e-07
-2.0035203e-08
-8.2914546e-07
-3.9998157e-08
-7.7539769e-07
-5.3747719e-08
-7.1116915e-07
-6.4228504e-08
-6.3828949e-07
-7.2879617e-08
-5.5880568e-07
-7.9483766e-08
-4.740479e-07
-8.4757726e-08
-3.8473006e-07
-8.9317758e-08
-2.9130987e-07
-9.3420098e-08
-1.9323542e-07
-9.8074345e-08
-7.0398287e-08
-1.2283698e-07
8.1675958e-08
-1.5207362e-07
2.5094832e-07
-1.6927255e-07
4.4548059e-07
-1.9453143e-07
6.8095958e-07
-2.354796e-07
9.7251133e-07
-2.9155167e-07
1.3244609e-06
-3.519495e-07
1.7158382e-06
-3.9137728e-07
2.0437756e-06
-3.2793734e-07
2.1204909e-06
-7.6715303e-08
1.8994304e-06
2.2106055e-07
1.5211154e-06
3.7831496e-07
1.0987767e-06
4.2233858e-07
7.8384154e-07
3.1493509e-07
5.1723894e-07
2.6660252e-07
4.8192283e-08
1.6927235e-06
-1.6328697e-07
1.686943e-06
-1.0427623e-09
1.7049865e-06
-2.0127887e-08
1.1134606e-06
7.7911064e-07
3.9943133e-07
9.4161972e-07
-3.1787897e-07
9.387569e-07
-6.3604438e-07
4.1078708e-07
-6.1974282e-07
-2.6128666e-08
-5.0700856e-07
-1.4943177e-07
-4.3327003e-07
-9.6953451e-08
-3.9160173e-07
-5.4570109e-08
-3.5994573e-07
-4.1493006e-08
-3.2699984e-07
-4.3233726e-08
-2.9101619e-07
-4.7266173e-08
-2.5097976e-07
-5.2651806e-08
-2.1177598e-07
-5.1549271e-08
-1.8075702e-07
-4.0688389e-08
-1.5703296e-07
-3.1095456e-08
-1.3771489e-07
-2.5255616e-08
-1.2226074e-07
-2.0128328e-08
-1.0811275e-07
-1.8383413e-08
-9.5731286e-08
-1.6006406e-08
-8.5646139e-08
-1.2970356e-08
-7.6936767e-08
-1.1169701e-08
-7.0784954e-08
-7.8136799e-09
-6.6365037e-08
-5.5945742e-09
-6.2960922e-08
-4.3181265e-09
-5.7815555e-08
-6.7110408e-09
-4.6883591e-08
-1.4393826e-08
-2.7265813e-08
-2.5870039e-08
1.801459e-09
-3.8304739e-08
3.8765075e-08
-4.8683211e-08
8.1880995e-08
-5.6760166e-08
1.3005176e-07
-6.3398511e-08
1.8247774e-07
-6.8976287e-08
2.3843805e-07
-7.3611142e-08
2.9652349e-07
-7.6390209e-08
3.5448521e-07
-7.6209793e-08
4.1026373e-07
-7.3321388e-08
4.6237664e-07
-6.8488497e-08
5.0938061e-07
-6.1765753e-08
5.5083972e-07
-5.4475882e-08
5.8616063e-07
-4.6430397e-08
6.1755911e-07
-4.1291008e-08
6.4566907e-07
-3.7046296e-08
6.8489152e-07
-5.1756895e-08
7.2673825e-07
-5.571749e-08
7.2450622e-07
3.1498707e-09
6.9542018e-07
3.8313727e-08
6.6280375e-07
4.2837764e-08
6.3015256e-07
4.2691291e-08
6.0312367e-07
3.5188958e-08
5.838696e-07
2.4854295e-08
5.7518584e-07
1.0892051e-08
5.782913e-07
-4.6453551e-09
5.9414712e-07
-2.140742e-08
6.2266935e-07
-3.8035778e-08
6.6268527e-07
-5.310754e-08
7.1030952e-07
-6.3070264e-08
7.5945417e-07
-6.5019511e-08
8.0520937e-07
-6.0499944e-08
8.4576267e-07
-5.3593729e-08
8.8133554e-07
-4.6995167e-08
9.1288114e-07
-4.1667933e-08
9.4157471e-07
-3.7910361e-08
9.6861079e-07
-3.5740446e-08
9.9523252e-07
-3.5225745e-08
1.022752e-06
-3.6450388e-08
1.0526159e-06
-3.9596938e-08
1.0863275e-06
-4.473248e-08
1.1252947e-06
-5.1733453e-08
1.1705004e-06
-6.0024519e-08
1.2221762e-06
-6.8606213e-08
1.2793336e-06
-7.5848344e-08
1.3392288e-06
-7.9411007e-08
1.3969145e-06
-7.6363137e-08
1.4449605e-06
-6.3413053e-08
1.4736457e-06
-3.7533956e-08
1.4719988e-06
2.8871382e-09
1.4291671e-06
5.7637276e-08
1.3364305e-06
1.237983e-07
1.1903562e-06
1.9427446e-07
9.9552773e-07
2.5836471e-07
7.6745214e-07
3.0158021e-07
5.3703866e-07
3.0352846e-07
3.5326288e-07
2.4047407e-07
2.4774879e-07
1.3571881e-07
2.0362898e-07
5.4326933e-08
1.821909e-07
2.501651e-08
1.5204998e-07
3.7034072e-08
9.7244677e-08
6.9981499e-08
1.8331222e-08
1.0205236e-07
-7.8308174e-08
1.2568731e-07
-1.8895791e-07
1.4440585e-07
-3.132014e-07
1.6256846e-07
-4.5274564e-07
1.829104e-07
-6.0989983e-07
2.0626153e-07
-7.866763e-07
2.3220991e-07
-9.8428371e-07
2.5974761e-07
-1.2031432e-06
2.8782686e-07
-1.4433224e-06
3.1603477e-07
-1.7041362e-06
3.4336202e-07
-1.9843117e-06
3.6905145e-07
-2.2821917e-06
3.9259867e-07
-2.5953027e-06
4.1292176e-07
-2.9204201e-06
4.2901893e-07
-3.2539232e-06
4.4037767e-07
-3.5914989e-06
4.4606329e-07
-3.9283004e-06
4.4537519e-07
-4.259409e-06
4.3820895e-07
-4.5796833e-06
4.2426741e-07
-4.8838847e-06
4.0341443e-07
-5.1669782e-06
3.7591774e-07
-5.4239488e-06
3.4179195e-07
-5.6502956e-06
3.0172116e-07
-5.8419669e-06
2.5629898e-07
-5.9948941e-06
2.0549799e-07
-6.1049792e-06
1.4928185e-07
-6.1678352e-06
8.7267994e-08
-6.1776222e-06
1.7553166e-08
-6.1263334e-06
-6.2729976e-08
-6.0045897e-06
-1.5542584e-07
-5.8007061e-06
-2.6361502e-07
-5.4995368e-06
-3.9193765e-07
-5.0810479e-06
-5.4689437e-07
-4.5197522e-06
-7.3589204e-07
-3.7836221e-06
-9.6779257e-07
-2.8413531e-06
-1.2420877e-06
-1.726872e-06
-1.472829e-06
-5.7141974e-07
-1.525607e-06
5.7769127e-07
-1.5175292e-06
1.730808e-06
-1.5273452e-06
2.7580018e-06
-1.3621898e-06
3.4603193e-06
-9.3227302e-07
3.6828349e-06
-2.9546986e-07
3.376475e-06
4.059793e-07
2.6490336e-06
9.6213238e-07
1.7445708e-06
1.1927893e-06
9.4071519e-07
1.0566907e-06
4.4434969e-07
6.4934667e-07
3.2548525e-07
1.496623e-07
2.9625752e-07
2.5207082e-08
-2.0986869e-07
6.5895581e-07
-1.1580431e-06
1.2595534e-06
-1.8392194e-06
9.1619864e-07
-1.7833951e-06
-6.0687273e-08
-1.0328493e-06
-9.8665978e-07
4.455396e-08
-1.4252518e-06
1.0040085e-06
-1.2741195e-06
1.5591198e-06
-7.3734837e-07
1.7566161e-06
-2.6084441e-07
1.8282184e-06
-9.3061185e-08
1.8984444e-06
-9.1825509e-08
1.9546155e-06
-7.4049592e-08
1.9671314e-06
-1.9220989e-08
1.9227674e-06
5.4815906e-08
1.8164139e-06
1.3551093e-07
1.6387723e-06
2.2853275e-07
1.3778792e-06
3.3833854e-07
1.0372908e-06
4.4396266e-07
6.3945386e-07
5.2062884e-07
2.1715882e-07
5.5419559e-07
-2.0059637e-07
5.4942099e-07
-6.0095074e-07
5.2720102e-07
-9.8736813e-07
5.0936738e-07
-1.362579e-06
4.9544404e-07
-1.711083e-06
4.6088934e-07
-2.0192257e-06
4.0818045e-07
-2.2809842e-06
3.4740217e-07
-2.4928161e-06
2.8180104e-07
-2.6539448e-06
2.1506832e-07
-2.7654844e-06
1.4973707e-07
-2.8257047e-06
8.214968e-08
-2.824594e-06
1.0516356e-09
-2.7551031e-06
-8.9525997e-08
-2.6245721e-06
-1.7052909e-07
-2.4513868e-06
-2.2693299e-07
-2.2459572e-06
-2.6965801e-07
-2.0138572e-06
-3.0497957e-07
-1.7614408e-06
-3.3190009e-07
-1.4926554e-06
-3.5354307e-07
-1.2098217e-06
-3.7215135e-07
-9.1404636e-07
-3.891953e-07
-6.031995e-07
-4.0892105e-07
-2.1248242e-07
-5.1355385e-07
2.685979e-07
-6.3315315e-07
7.9966228e-07
-7.0033712e-07
1.409476e-06
-8.0434406e-07
2.1455222e-06
-9.7152654e-07
3.0538071e-06
-1.1998365e-06
4.1454077e-06
-1.4435501e-06
5.3557234e-06
-1.6016929e-06
6.3696365e-06
-1.3418504e-06
6.64035e-06
-3.4742878e-07
6.007822e-06
8.5358859e-07
4.8766729e-06
1.5094639e-06
3.5739095e-06
1.7251019e-06
2.5946822e-06
1.2941622e-06
1.7242604e-06
1.1370242e-06
1.9661284e-07
3.1071402e-06
-3.3123861e-07
3.0723592e-06
3.3738311e-08
3.1013131e-06
-4.9081661e-08
2.0598206e-06
1.8206032e-06
7.924157e-07
2.2090248e-06
-5.0735577e-07
2.2385285e-06
-1.1127825e-06
1.0162139e-06
-1.1066686e-06
-3.2242478e-08
-9.1179224e-07
-3.4430801e-07
-7.8028332e-07
-2.2846233e-07
-7.0500706e-07
-1.2984631e-07
-6.4791166e-07
-9.8588412e-08
-5.8871132e-07
-1.0243405e-07
-5.2419665e-07
-1.1178085e-07
-4.5257941e-07
-1.2426852e-07
-3.8236058e-07
-1.217685e-07
-3.2643696e-07
-9.6611729e-08
-2.835155e-07
-7.401737e-08
-2.4833247e-07
-6.0438547e-08
-2.1988866e-07
-4.85723e-08
-1.9366437e-07
-4.4607624e-08
-1.7039509e-07
-3.9275652e-08
-1.5115255e-07
-3.2212859e-08
-1.3438433e-07
-2.7937934e-08
-1.2222913e-07
-1.9968871e-08
-1.1338714e-07
-1.4436617e-08
-1.066299e-07
-1.1075401e-08
-9.7175783e-08
-1.6165235e-08
-7.7712536e-08
-3.3857121e-08
-4.2959019e-08
-6.0623633e-08
8.6210487e-09
-8.9884868e-08
7.4322601e-08
-1.1438485e-07
1.510469e-07
-1.3348442e-07
2.3681391e-07
-1.4916568e-07
3.302111e-07
-1.6237339e-07
4.2993502e-07
-1.7333521e-07
5.3347674e-07
-1.7993181e-07
6.3684306e-07
-1.795763e-07
7.3636409e-07
-1.7284234e-07
8.2938234e-07
-1.6150696e-07
9.1330883e-07
-1.4569221e-07
9.8732855e-07
-1.2849583e-07
1.0503331e-06
-1.0943493e-07
1.1062137e-06
-9.7171808e-08
1.1560322e-06
-8.6864724e-08
1.2249013e-06
-1.2062618e-07
1.2969966e-06
-1.2781278e-07
1.2937307e-06
6.4155309e-09
1.2424579e-06
8.95865e-08
1.1840523e-06
1.0124319e-07
1.1247944e-06
1.0194922e-07
1.0749343e-06
8.5048868e-08
1.0384292e-06
6.1359164e-08
1.0204292e-06
2.8892012e-08
1.0232787e-06
-7.4950055e-09
1.0488627e-06
-4.6991492e-08
1.0971639e-06
-8.6337222e-08
1.166159e-06
-1.2210268e-07
1.2489455e-06
-1.4585696e-07
1.3347127e-06
-1.5078664e-07
1.4147645e-06
-1.4055183e-07
1.4858652e-06
-1.2469447e-07
1.5483276e-06
-1.0945767e-07
1.6037544e-06
-9.7094813e-08
1.6541311e-06
-8.828728e-08
1.7015003e-06
-8.3109661e-08
1.7479891e-06
-8.1714692e-08
1.7958613e-06
-8.432258e-08
1.8476102e-06
-9.1346049e-08
1.9058459e-06
-1.0296818e-07
1.9730156e-06
-1.1890321e-07
2.050867e-06
-1.3787588e-07
2.1398722e-06
-1.5761137e-07
2.2384418e-06
-1.7441813e-07
2.3420049e-06
-1.8297429e-07
2.442225e-06
-1.765833e-07
2.5264834e-06
-1.4767164e-07
2.5781517e-06
-8.9202358e-08
2.5782602e-06
2.7785557e-09
2.5077881e-06
1.2810932e-07
2.3510081e-06
2.8057805e-07
2.1009162e-06
4.4436638e-07
1.7640368e-06
5.9524379e-07
1.3657e-06
6.9991719e-07
9.5802325e-07
7.11205e-07
6.2525546e-07
5.7324199e-07
4.2317008e-07
3.3780423e-07
3.2705117e-07
1.5044566e-07
2.7338938e-07
7.8678075e-08
2.0691398e-07
1.035093e-07
9.8897873e-08
1.7799736e-07
-5.0183421e-08
2.5113321e-07
-2.2922077e-07
3.0472443e-07
-4.3175177e-07
3.4693608e-07
-6.5716507e-07
3.8798181e-07
-9.0877312e-07
4.3451785e-07
-1.1908851e-06
4.8837385e-07
-1.5072716e-06
5.4859549e-07
-1.860138e-06
6.1261442e-07
-2.2502362e-06
6.7792439e-07
-2.6775408e-06
7.4334013e-07
-3.140694e-06
8.0651492e-07
-3.6372622e-06
8.6561984e-07
-4.1641008e-06
9.1943675e-07
-4.716668e-06
9.6548926e-07
-5.2891135e-06
1.0014639e-06
-5.8748849e-06
1.0261495e-06
-6.4662692e-06
1.0374471e-06
-7.054638e-06
1.0337445e-06
-7.6312479e-06
1.0148185e-06
-8.1870112e-06
9.8003111e-07
-8.7126907e-06
9.2909358e-07
-9.1994407e-06
8.6266801e-07
-9.6384927e-06
7.8084367e-07
-1.0021982e-05
6.852111e-07
-1.0342813e-05
5.77129e-07
-1.059389e-05
4.5657584e-07
-1.0768061e-05
3.2345223e-07
-1.0857683e-05
1.7689017e-07
-1.0852406e-05
1.2276153e-08
-1.0738194e-05
-1.769417e-07
-1.0498852e-05
-3.9476925e-07
-1.0114286e-05
-6.4818021e-07
-9.5586108e-06
-9.4761345e-07
-8.7977332e-06
-1.3077717e-06
-7.7888995e-06
-1.744726e-06
-6.4788304e-06
-2.2778616e-06
-4.8177456e-06
-2.9031738e-06
-2.8661949e-06
-3.4243787e-06
-8.3788033e-07
-3.5539226e-06
1.1756445e-06
-3.5310529e-06
3.1781925e-06
-3.5298944e-06
4.9556799e-06
-3.1396763e-06
6.1699904e-06
-2.1465841e-06
6.558046e-06
-6.8352448e-07
6.0318469e-06
9.3217873e-07
4.7657335e-06
2.2282457e-06
3.1721489e-06
2.7863733e-06
1.7368849e-06
2.4919552e-06
8.3359597e-07
1.552635e-06
5.8542711e-07
3.978321e-07
4.7195084e-07
1.3868335e-07
-4.5641262e-07
1.5873194e-06
-2.0843935e-06
2.887534e-06
-3.202445e-06
2.0342505e-06
-3.0466713e-06
-2.1646159e-07
-1.7103715e-06
-2.3229585e-06
1.6725732e-07
-3.3028806e-06
1.8186275e-06
-2.9254894e-06
2.7740606e-06
-1.6927812e-06
3.122176e-06
-6.0895978e-07
3.2548902e-06
-2.2577554e-07
3.3812326e-06
-2.1816735e-07
3.4780245e-06
-1.7084121e-07
3.4881649e-06
-2.9361169e-08
3.3922995e-06
1.5068154e-07
3.1820176e-06
3.4579292e-07
2.8420579e-06
5.684927e-07
2.3553002e-06
8.2509631e-07
1.7307679e-06
1.0684951e-06
1.0106128e-06
1.2407839e-06
2.5346194e-07
1.3113467e-06
-4.9027771e-07
1.2931607e-06
-1.2001634e-06
1.2370869e-06
-1.8831118e-06
1.1923158e-06
-2.5429716e-06
1.155304e-06
-3.1530086e-06
1.0709264e-06
-3.6897478e-06
9.4491982e-07
-4.1430405e-06
8.0069497e-07
-4.5071834e-06
6.4594402e-07
-4.7811883e-06
4.8907331e-07
-4.9671824e-06
3.3573123e-07
-5.062074e-06
1.770414e-07
-5.0491846e-06
-1.1837723e-08
-4.9169499e-06
-2.2176065e-07
-4.6787567e-06
-4.0872223e-07
-4.3659571e-06
-5.3973255e-07
-3.9969208e-06
-6.3869421e-07
-3.5813388e-06
-7.2056159e-07
-3.1302607e-06
-7.8297813e-07
-2.6504295e-06
-8.3337416e-07
-2.1459223e-06
-8.7665843e-07
-1.6182996e-06
-9.1681787e-07
-1.0628885e-06
-9.6433206e-07
-3.6285642e-07
-1.2135858e-06
4.953549e-07
-1.4913638e-06
1.4369794e-06
-1.6419618e-06
2.5166273e-06
-1.8839911e-06
3.8159817e-06
-2.2708816e-06
5.4131062e-06
-2.7969609e-06
7.3234009e-06
-3.3538446e-06
9.4318174e-06
-3.7101093e-06
1.1197315e-05
-3.1073476e-06
1.1709204e-05
-8.5931852e-07
1.0678969e-05
1.883824e-06
8.7639365e-06
3.4244965e-06
6.5081147e-06
3.9809236e-06
4.7841133e-06
3.0181635e-06
3.2200337e-06
2.7011037e-06
4.7745793e-07
4.7936208e-06
-5.2566312e-07
4.7186234e-06
1.0873579e-07
4.7393475e-06
-6.9805597e-08
3.2080849e-06
3.351866e-06
1.3119636e-06
4.1051462e-06
-6.6614699e-07
4.2166392e-06
-1.6332102e-06
1.9832773e-06
-1.6601861e-06
-5.2664707e-09
-1.3784277e-06
-6.2606624e-07
-1.181507e-06
-4.2538302e-07
-1.067237e-06
-2.441162e-07
-9.8058666e-07
-1.8523878e-07
-8.9112378e-07
-1.9189691e-07
-7.9386113e-07
-2.0904352e-07
-6.8610057e-07
-2.3202855e-07
-5.8032093e-07
-2.2754852e-07
-4.9560456e-07
-1.8132785e-07
-4.3029938e-07
-1.3932302e-07
-3.7644292e-07
-1.1429492e-07
-3.324658e-07
-9.2549591e-08
-2.9163205e-07
-8.5441279e-08
-2.5495936e-07
-7.5948295e-08
-2.2420805e-07
-6.2964118e-08
-1.9717839e-07
-5.4967617e-08
-1.7716152e-07
-3.9985741e-08
-1.6242171e-07
-2.9176489e-08
-1.5124622e-07
-2.2250944e-08
-1.3662649e-07
-3.0785059e-08
-1.0750429e-07
-6.2979388e-08
-5.5772551e-08
-1.1235547e-07
2.1110768e-08
-1.6676827e-07
1.192109e-07
-2.124851e-07
2.3389733e-07
-2.4817082e-07
3.621805e-07
-2.7744902e-07
5.0195444e-07
-3.0214724e-07
6.5125076e-07
-3.2263168e-07
8.0631535e-07
-3.3499629e-07
9.6119331e-07
-3.3445446e-07
1.1103909e-06
-3.2203982e-07
1.2499037e-06
-3.0102001e-07
1.3758403e-06
-2.7162884e-07
1.4869015e-06
-2.3955727e-07
1.5814015e-06
-2.0393485e-07
1.6649829e-06
-1.8075349e-07
1.7393171e-06
-1.6119889e-07
1.8407311e-06
-2.2204043e-07
1.9456164e-06
-2.3269812e-07
1.9415289e-06
1.0502816e-08
1.8658499e-06
1.6526552e-07
1.7779815e-06
1.8911134e-07
1.6877452e-06
1.9218549e-07
1.6105459e-06
1.6224795e-07
1.5526063e-06
1.1929852e-07
1.5218413e-06
5.9656907e-08
1.522056e-06
-7.7098487e-09
1.5563247e-06
-8.1260254e-08
1.6248403e-06
-1.5485315e-07
1.7246781e-06
-2.2194047e-07
1.8455527e-06
-2.6673184e-07
1.9713431e-06
-2.7657691e-07
2.0890947e-06
-2.5830363e-07
2.1939325e-06
-2.295323e-07
2.2861943e-06
-2.0171955e-07
2.3681251e-06
-1.7902571e-07
2.4425399e-06
-1.6270236e-07
2.512364e-06
-1.5293378e-07
2.5806548e-06
-1.5000571e-07
2.6506864e-06
-1.5435415e-07
2.7260685e-06
-1.6672836e-07
2.8105982e-06
-1.8749786e-07
2.9078477e-06
-2.1615287e-07
3.0204146e-06
-2.5044274e-07
3.1490835e-06
-2.8628033e-07
3.2917121e-06
-3.1704689e-07
3.4419089e-06
-3.3317118e-07
3.5878864e-06
-3.2256103e-07
3.7116713e-06
-2.7145668e-07
3.789407e-06
-1.6693817e-07
3.7935938e-06
-1.4084285e-09
3.6962801e-06
2.2542287e-07
3.4737348e-06
5.0312311e-07
3.1142411e-06
8.0386004e-07
2.6252014e-06
1.0842831e-06
2.0411242e-06
1.2839945e-06
1.4356064e-06
1.3167226e-06
9.3006551e-07
1.0787829e-06
6.0693243e-07
6.6093731e-07
4.3684352e-07
3.2053431e-07
3.3283671e-07
1.8268461e-07
2.1355014e-07
2.2279562e-07
3.567671e-08
3.5587047e-07
-2.0063803e-07
4.8744744e-07
-4.7922254e-07
5.8330864e-07
-7.9068521e-07
6.583979e-07
-1.1344035e-06
7.3170008e-07
-1.515737e-06
8.1585073e-07
-1.9414741e-06
9.1411131e-07
-2.4175144e-06
1.0246348e-06
-2.9472548e-06
1.1423551e-06
-3.5317896e-06
1.2624585e-06
-4.1708734e-06
1.3824247e-06
-4.8622508e-06
1.4978919e-06
-5.6020141e-06
1.6053833e-06
-6.3851591e-06
1.7025813e-06
-7.2046643e-06
1.7849947e-06
-8.0515902e-06
1.8483894e-06
-8.9159618e-06
1.8905215e-06
-9.7861683e-06
1.907653e-06
-1.064929e-05
1.8968667e-06
-1.149226e-05
1.8577885e-06
-1.2301578e-05
1.7893498e-06
-1.306357e-05
1.6910852e-06
-1.3765195e-05
1.564293e-06
-1.4393599e-05
1.4092474e-06
-1.493727e-05
1.228882e-06
-1.5385802e-05
1.0256614e-06
-1.5728837e-05
7.996108e-07
-1.5955931e-05
5.5054531e-07
-1.6055967e-05
2.7692685e-07
-1.6013429e-05
-3.026245e-08
-1.5807749e-05
-3.8262133e-07
-1.5415733e-05
-7.8678629e-07
-1.4808495e-05
-1.2554182e-06
-1.3949065e-05
-1.8070435e-06
-1.2789071e-05
-2.467765e-06
-1.1268661e-05
-3.2651367e-06
-9.3138299e-06
-4.2326925e-06
-6.8585937e-06
-5.3584115e-06
-3.9887782e-06
-6.2941932e-06
-9.995866e-07
-6.5431151e-06
1.9596401e-06
-6.4902784e-06
4.8790839e-06
-6.4493393e-06
7.4635646e-06
-5.724156e-06
9.232161e-06
-3.915181e-06
9.8079076e-06
-1.2592701e-06
9.0565752e-06
1.6835116e-06
7.2116951e-06
4.0731258e-06
4.8559325e-06
5.1421354e-06
2.7017386e-06
4.6461496e-06
1.3168514e-06
2.9375216e-06
8.8457693e-07
8.3010761e-07
6.2441559e-07
3.9884471e-07
-7.9819557e-07
3.0099308e-06
-3.1411642e-06
5.2305024e-06
-4.674788e-06
3.5678747e-06
-4.3630642e-06
-5.2818603e-07
-2.3674881e-06
-4.3185334e-06
3.7794277e-07
-6.0483115e-06
2.7640856e-06
-5.3116318e-06
4.1463379e-06
-3.0750332e-06
4.6635467e-06
-1.1261686e-06
4.8695251e-06
-4.3175394e-07
5.0589606e-06
-4.0760228e-07
5.1966538e-06
-3.0853407e-07
5.1943155e-06
-2.7022587e-08
5.0251624e-06
3.1983496e-07
4.6784438e-06
6.9251164e-07
4.1339645e-06
1.1129723e-06
3.3716532e-06
1.5874076e-06
2.4094728e-06
2.0306758e-06
1.3135564e-06
2.3367004e-06
1.7250279e-07
2.4524004e-06
-9.4033492e-07
2.4059985e-06
-1.9981245e-06
2.2948766e-06
-3.0120416e-06
2.2062331e-06
-3.9865809e-06
2.1298433e-06
-4.8829209e-06
1.9672665e-06
-5.6673046e-06
1.7293037e-06
-6.3254721e-06
1.4588627e-06
-6.8498304e-06
1.1703024e-06
-7.2395356e-06
8.7877858e-07
-7.497953e-06
5.9414873e-07
-7.6207301e-06
2.9981865e-07
-7.5844342e-06
-4.8133536e-08
-7.3733529e-06
-4.3284184e-07
-7.0077537e-06
-7.7432138e-07
-6.5328661e-06
-1.0146201e-06
-5.9756194e-06
-1.1959408e-06
-5.3502421e-06
-1.3459388e-06
-4.6728046e-06
-1.4604156e-06
-3.9530315e-06
-1.5531473e-06
-3.1968019e-06
-1.6328879e-06
-2.4059744e-06
-1.7076451e-06
-1.5719936e-06
-1.7983127e-06
-5.182167e-07
-2.2673624e-06
7.6762845e-07
-2.7772081e-06
2.1698913e-06
-3.0442247e-06
3.7747238e-06
-3.4888226e-06
5.7004656e-06
-4.196624e-06
8.057716e-06
-5.1542112e-06
1.0864222e-05
-6.1603504e-06
1.3947834e-05
-6.7937217e-06
1.6535243e-05
-5.6947561e-06
1.734616e-05
-1.6702358e-06
1.5949714e-05
3.28027e-06
1.323352e-05
6.1406901e-06
9.9647246e-06
7.2497194e-06
7.407386e-06
5.5755019e-06
5.067124e-06
5.0413656e-06
9.4538558e-07
6.7946852e-06
-7.1238978e-07
6.6650035e-06
2.3841757e-07
6.6519529e-06
-5.6754954e-08
4.5927199e-06
5.4110992e-06
1.9877353e-06
6.7101309e-06
-7.7588694e-07
6.9802616e-06
-2.1942407e-06
3.4016312e-06
-2.2853094e-06
8.5802349e-08
-1.9135032e-06
-9.9787233e-07
-1.6431318e-06
-6.9575433e-07
-1.4838876e-06
-4.0336041e-07
-1.3630766e-06
-3.0604972e-07
-1.2389065e-06
-3.16067e-07
-1.1042425e-06
-3.4370755e-07
-9.5532435e-07
-3.8094629e-07
-8.0896926e-07
-3.7390389e-07
-6.9111995e-07
-2.9917697e-07
-5.9983422e-07
-2.3060912e-07
-5.2410816e-07
-1.9002091e-07
-4.6167224e-07
-1.5498564e-07
-4.0330229e-07
-1.4381115e-07
-3.5029917e-07
-1.2895138e-07
-3.0527743e-07
-1.0798581e-07
-2.6538698e-07
-9.4858087e-08
-2.352964e-07
-7.0076319e-08
-2.1289675e-07
-5.1576188e-08
-1.9603889e-07
-3.9108846e-08
-1.7528593e-07
-5.1538098e-08
-1.3531405e-07
-1.0295132e-07
-6.4689545e-08
-1.8298006e-07
4.0417156e-08
-2.7187503e-07
1.7477898e-07
-3.4684701e-07
3.320484e-07
-4.0544022e-07
5.080868e-07
-4.5348755e-07
7.0000506e-07
-4.9406543e-07
9.0508047e-07
-5.277072e-07
1.1181582e-06
-5.480739e-07
1.3310938e-06
-5.4739024e-07
1.5363445e-06
-5.2729049e-07
1.7283728e-06
-4.9304849e-07
1.9018137e-06
-4.4506977e-07
2.0547694e-06
-3.9251313e-07
2.1849051e-06
-3.3407057e-07
2.2996697e-06
-2.9551818e-07
2.4015518e-06
-2.6308105e-07
2.5384524e-06
-3.5894123e-07
2.6786292e-06
-3.7287493e-07
2.6741059e-06
1.5025983e-08
2.5718968e-06
2.6747458e-07
2.4506892e-06
3.1031879e-07
2.324708e-06
3.1816665e-07
2.2151063e-06
2.7184947e-07
2.1309099e-06
2.0349481e-07
2.0832635e-06
1.0730316e-07
2.0778314e-06
-2.2778738e-09
2.1191971e-06
-1.2262604e-07
2.2079537e-06
-2.4360989e-07
2.340238e-06
-3.5422482e-07
2.5020083e-06
-4.2850238e-07
2.6712198e-06
-4.4578837e-07
2.8301563e-06
-4.1724022e-07
2.9720542e-06
-3.7143022e-07
3.0971823e-06
-3.268477e-07
3.2083994e-06
-2.9024293e-07
3.3093519e-06
-2.6365508e-07
3.4038689e-06
-2.4745084e-07
3.4959731e-06
-2.4211e-07
3.5899965e-06
-2.4837762e-07
3.6907249e-06
-2.6745685e-07
3.8032129e-06
-2.9998589e-07
3.9322355e-06
-3.4517553e-07
4.0813203e-06
-3.9952755e-07
4.251639e-06
-4.5659905e-07
4.4405576e-06
-5.0596561e-07
4.6398996e-06
-5.3251332e-07
4.8344162e-06
-5.1707773e-07
5.0006845e-06
-4.3772514e-07
5.1073872e-06
-2.7364091e-07
5.1180372e-06
-1.2058592e-08
4.9950333e-06
3.4842674e-07
4.705644e-06
7.9251224e-07
4.2322064e-06
1.2772976e-06
3.5817262e-06
1.734763e-06
2.7969102e-06
2.0688106e-06
1.9726691e-06
2.1409637e-06
1.2689531e-06
1.782499e-06
7.9695012e-07
1.1329403e-06
5.2661007e-07
5.908742e-07
3.4988887e-07
3.5940558e-07
1.5734849e-07
4.1533581e-07
-1.1052986e-07
6.2374856e-07
-4.5413182e-07
8.31049e-07
-8.519715e-07
9.8114806e-07
-1.2916214e-06
1.0980471e-06
-1.7727562e-06
1.2128349e-06
-2.3033338e-06
1.3464278e-06
-2.893184e-06
1.5039618e-06
-3.5507518e-06
1.6822018e-06
-4.2808359e-06
1.8724395e-06
-5.0848684e-06
2.0664905e-06
-5.9622162e-06
2.2597731e-06
-6.9094482e-06
2.4451237e-06
-7.9208054e-06
2.6167407e-06
-8.9889784e-06
2.7707539e-06
-1.0103984e-05
2.9000005e-06
-1.1253259e-05
2.9976641e-06
-1.2422847e-05
3.0601099e-06
-1.3596688e-05
3.0814932e-06
-1.4757016e-05
3.0571953e-06
-1.5885912e-05
2.9866842e-06
-1.6964983e-05
2.8684212e-06
-1.7975682e-05
2.7017844e-06
-1.8900409e-05
2.4890197e-06
-1.9721927e-05
2.2307659e-06
-2.0424833e-05
1.931788e-06
-2.0995197e-05
1.5960245e-06
-2.1419204e-05
1.2236186e-06
-2.1682954e-05
8.1429452e-07
-2.1771618e-05
3.6559161e-07
-2.1663893e-05
-1.3798781e-07
-2.1332367e-05
-7.1414751e-07
-2.0746874e-05
-1.37228e-06
-1.9869608e-05
-2.1326834e-06
-1.8652499e-05
-3.0241534e-06
-1.7033133e-05
-4.087131e-06
-1.4935259e-05
-5.3630109e-06
-1.2265389e-05
-6.9025625e-06
-8.9435231e-06
-8.680278e-06
-5.0765304e-06
-1.0161185e-05
-1.0396471e-06
-1.0579999e-05
2.9424729e-06
-1.0472398e-05
6.8409686e-06
-1.0347836e-05
1.028754e-05
-9.1707269e-06
1.2656468e-05
-6.284109e-06
1.3450612e-05
-2.0534132e-06
1.2479701e-05
2.6544225e-06
1.002501e-05
6.5278165e-06
6.8362377e-06
8.3309076e-06
3.8688916e-06
7.613496e-06
1.914466e-06
4.8919467e-06
1.2274992e-06
1.5170753e-06
7.4521658e-07
8.811273e-07
-1.2448726e-06
5.0000201e-06
-4.3270954e-06
8.312725e-06
-6.2428865e-06
5.483666e-06
-5.7129299e-06
-1.058143e-06
-2.9839433e-06
-7.0475191e-06
6.9199511e-07
-9.7242499e-06
3.8502754e-06
-8.4699119e-06
5.6854315e-06
-4.9101891e-06
6.3921686e-06
-1.8329057e-06
6.6844613e-06
-7.2404662e-07
6.9430468e-06
-6.6618732e-07
7.1199454e-06
-4.8543244e-07
7.0919523e-06
9.707922e-10
6.8229255e-06
5.8886191e-07
6.3009514e-06
1.2144859e-06
5.502392e-06
1.911532e-06
4.4070234e-06
2.6827762e-06
3.0460219e-06
3.3916775e-06
1.5145364e-06
3.868186e-06
-6.369521e-08
4.0306322e-06
-1.5914301e-06
3.9337335e-06
-3.0376065e-06
3.7410531e-06
-4.418084e-06
3.5867107e-06
-5.7374532e-06
3.4492127e-06
-6.9440758e-06
3.1738891e-06
-7.9936687e-06
2.7788967e-06
-8.8680119e-06
2.333206e-06
-9.5580109e-06
1.8603016e-06
-1.0063474e-05
1.3842418e-06
-1.0389266e-05
9.1994064e-07
-1.0529967e-05
4.4051997e-07
-1.0455461e-05
-1.2263923e-07
-1.0146448e-05
-7.4185535e-07
-9.6310214e-06
-1.2897476e-06
-8.9690331e-06
-1.6766084e-06
-8.1965468e-06
-1.9684271e-06
-7.3327417e-06
-2.2097438e-06
-6.3989757e-06
-2.3941815e-06
-5.4081006e-06
-2.5440223e-06
-4.3678011e-06
-2.6731873e-06
-3.2799872e-06
-2.7954588e-06
-2.130493e-06
-2.9478069e-06
-6.7442313e-07
-3.723432e-06
1.0930256e-06
-4.5446563e-06
3.0081522e-06
-4.9593514e-06
5.1954998e-06
-5.6761695e-06
7.8119408e-06
-6.8130654e-06
1.1000207e-05
-8.3424774e-06
1.4777944e-05
-9.9380873e-06
1.8909774e-05
-1.0925552e-05
2.2388717e-05
-9.1736982e-06
2.3565327e-05
-2.8468461e-06
2.1852166e-05
4.9934309e-06
1.8336114e-05
9.6567416e-06
1.4008341e-05
1.1577492e-05
1.0529322e-05
9.0545213e-06
7.3294078e-06
8.2412796e-06
1.6668348e-06
9.1604712e-06
-8.4640713e-07
8.9572178e-06
4.4167108e-07
8.877356e-06
2.3107024e-08
6.2529306e-06
8.0355247e-06
2.8548549e-06
1.0108207e-05
-8.1315059e-07
1.0648267e-05
-2.7902118e-06
5.3786926e-06
-2.9866642e-06
2.8225491e-07
-2.5239247e-06
-1.4606117e-06
-2.171782e-06
-1.0478969e-06
-1.9609553e-06
-6.1418703e-07
-1.8008418e-06
-4.661632e-07
-1.6370528e-06
-4.7985599e-07
-1.4598754e-06