/*--------------------------------*- C++ -*----------------------------------*\
| =========                 |                                                 |
| \\      /  F ield         | OpenFOAM: The Open Source CFD Toolbox           |
|  \\    /   O peration     | Version:  2.4.0                                 |
|   \\  /    A nd           | Web:      www.OpenFOAM.org                      |
|    \\/     M anipulation  |                                                 |
\*---------------------------------------------------------------------------*/
FoamFile
{
    version     2.0;
    format      ascii;
    class       volScalarField;
    location    "340";
    object      k;
}
// * * * * * * * * * * * * * * * * * * * * * * * * * * * * * * * * * * * * * //

dimensions      [0 2 -2 0 0 0 0];

internalField   nonuniform List<scalar> 
19475
(
8.396785e-07
4.4368225e-07
1.3140745e-06
7.9484509e-07
9.8978094e-07
3.2065972e-07
1.360037e-07
1.5491817e-08
8.205998e-08
1.8657498e-07
1.3447987e-07
1.1138793e-07
6.4326715e-08
5.2458142e-08
3.6501907e-08
3.3369694e-08
2.6470363e-08
2.5216627e-08
2.1417295e-08
1.9892891e-08
1.7102861e-08
1.5522726e-08
1.3489509e-08
1.253393e-08
1.1559501e-08
1.1151697e-08
1.0796551e-08
1.0846846e-08
1.1024474e-08
1.1564085e-08
1.2317805e-08
1.344698e-08
1.4878102e-08
1.6724507e-08
1.8910086e-08
2.1428003e-08
2.3959198e-08
2.6501427e-08
2.9057469e-08
3.1553612e-08
9.2801726e-08
8.8198425e-08
8.3742305e-08
7.9437062e-08
7.5277465e-08
7.1269075e-08
6.7404805e-08
6.3691421e-08
6.0118149e-08
5.6693279e-08
5.3402851e-08
5.0258831e-08
4.7243246e-08
4.4372082e-08
4.1621589e-08
3.901281e-08
3.6515737e-08
3.4158234e-08
3.1903289e-08
2.9786685e-08
2.7761609e-08
2.5873536e-08
2.4065094e-08
2.2393941e-08
2.0789202e-08
1.9323129e-08
1.790919e-08
1.6637514e-08
1.5402399e-08
1.4315149e-08
1.3246823e-08
1.2334478e-08
1.1421127e-08
1.0675583e-08
9.9069316e-09
9.3233104e-09
8.6925164e-09
8.2709751e-09
7.7759009e-09
7.5237248e-09
7.1710742e-09
7.1088542e-09
6.9241199e-09
7.0976066e-09
7.1015052e-09
7.5376369e-09
7.9542835e-09
8.1250935e-09
8.4211449e-09
8.2865411e-09
8.2493265e-09
7.8361377e-09
7.4786888e-09
6.8345819e-09
6.2165037e-09
5.4132582e-09
4.6380249e-09
3.7878834e-09
3.0050971e-09
2.2608128e-09
1.6432808e-09
2.425213e-09
3.8728378e-09
6.2029667e-09
9.6615195e-09
1.4664807e-08
2.1464952e-08
3.0528026e-08
4.2051663e-08
5.6479176e-08
7.3818474e-08
9.428827e-08
1.1711369e-07
1.4125059e-07
1.6711781e-07
1.949977e-07
2.2453295e-07
2.5632396e-07
2.8668562e-07
3.1840127e-07
3.5650755e-07
4.0248481e-07
4.5852127e-07
5.2574329e-07
6.1083647e-07
7.2074053e-07
8.7758895e-07
1.0660512e-06
1.3131602e-06
1.6033718e-06
1.9927165e-06
2.4466173e-06
3.0814248e-06
3.8290546e-06
4.9162224e-06
6.1707166e-06
7.9312192e-06
9.5338898e-06
1.1193947e-05
1.0760565e-05
9.2712138e-06
6.5916534e-06
4.7025882e-06
2.5020219e-06
1.7425616e-06
6.5311365e-07
7.3389059e-07
1.6855844e-07
6.9899758e-07
2.3597133e-07
9.0546521e-07
2.7236474e-07
1.4286244e-07
1.1463054e-07
7.5595798e-08
3.3706372e-08
1.1611348e-08
3.4275707e-08
2.3813889e-08
1.8857102e-08
1.090188e-08
8.7249988e-09
6.1615213e-09
5.6100913e-09
4.5273691e-09
4.3135313e-09
3.7271323e-09
3.4855834e-09
3.0559939e-09
2.8097629e-09
2.49875e-09
2.3566844e-09
2.2208605e-09
2.1772205e-09
2.1485672e-09
2.188201e-09
2.2553485e-09
2.3862822e-09
2.5603238e-09
2.8031958e-09
3.1057201e-09
3.4867244e-09
3.9363166e-09
4.4538227e-09
4.9887808e-09
5.539383e-09
6.1085227e-09
6.6860197e-09
8.8726584e-08
8.7479775e-08
8.6242753e-08
8.5016692e-08
8.3801062e-08
8.2597142e-08
8.1404143e-08
8.0223674e-08
7.905426e-08
7.7897577e-08
7.6751382e-08
7.5617951e-08
7.4494309e-08
7.3383495e-08
7.2281343e-08
7.1191708e-08
7.0108953e-08
6.9038111e-08
6.7971933e-08
6.6917204e-08
6.5864253e-08
6.4821811e-08
6.3777171e-08
6.2742031e-08
6.1699675e-08
6.0665438e-08
5.9617427e-08
5.8575973e-08
5.7512582e-08
5.645391e-08
5.5362885e-08
5.4274263e-08
5.3139946e-08
5.2004829e-08
5.0807148e-08
4.9604297e-08
4.8318414e-08
4.7021488e-08
4.5617713e-08
4.4194247e-08
4.263769e-08
4.1047419e-08
3.931669e-08
3.7529111e-08
3.5444566e-08
3.3521741e-08
3.3153707e-08
3.3562927e-08
3.4450813e-08
3.5460366e-08
3.6612031e-08
3.7805505e-08
3.9063648e-08
4.0349133e-08
4.1673928e-08
4.3033427e-08
4.4437689e-08
4.590363e-08
4.7453951e-08
4.9142998e-08
5.1077497e-08
5.3419489e-08
5.5986936e-08
5.8793093e-08
6.1852665e-08
6.5215066e-08
6.8898528e-08
7.2949415e-08
7.7365775e-08
8.2175297e-08
8.7326844e-08
9.2751399e-08
9.8110838e-08
1.0327639e-07
1.084909e-07
1.1385648e-07
1.1952794e-07
1.2391912e-07
4.4506785e-08
4.7994256e-08
5.1989143e-08
5.7486076e-08
6.4488307e-08
7.303194e-08
8.3948396e-08
9.8183046e-08
1.186046e-07
1.4321157e-07
1.754662e-07
2.1276541e-07
2.603364e-07
3.1881163e-07
4.0052944e-07
4.9998232e-07
8.2550807e-07
1.124699e-06
1.4918108e-06
1.8210296e-06
2.1262128e-06
2.0670481e-06
1.8172726e-06
1.3678565e-06
6.5151716e-07
3.4913676e-07
2.423308e-07
9.686186e-08
1.0560413e-07
1.1805841e-07
3.6028915e-06
1.2670342e-06
4.4330602e-06
1.1697988e-06
1.3462947e-07
5.0775587e-07
4.1223853e-07
2.3037406e-07
9.7686407e-09
5.132204e-08
3.012014e-08
1.8739432e-08
1.085327e-08
7.7154516e-09
6.0071938e-09
5.3492586e-09
4.7899264e-09
4.5751843e-09
4.3333222e-09
4.1955301e-09
4.0257886e-09
3.9115381e-09
3.8044322e-09
3.7856373e-09
3.8287556e-09
3.9417097e-09
4.1061344e-09
4.337055e-09
4.6316522e-09
5.0056506e-09
5.4646231e-09
6.0248794e-09
6.6969673e-09
7.4975578e-09
8.4346332e-09
9.5097598e-09
1.0694184e-08
1.1978415e-08
1.3379736e-08
1.4901848e-08
5.5296855e-07
5.4860468e-07
5.4416042e-07
5.3964054e-07
5.3504654e-07
5.3038206e-07
5.2564862e-07
5.2085103e-07
5.1598959e-07
5.1106803e-07
5.0608435e-07
5.0104283e-07
4.9594029e-07
4.9078242e-07
4.8556331e-07
4.802894e-07
4.7495047e-07
4.6955455e-07
4.6408681e-07
4.5856e-07
4.5295167e-07
4.4727874e-07
4.415075e-07
4.3566402e-07
4.2969917e-07
4.2365055e-07
4.1744739e-07
4.1114531e-07
4.0464506e-07
3.9802672e-07
3.9115223e-07
3.8413434e-07
3.7678333e-07
3.6925332e-07
3.6128966e-07
3.5309726e-07
3.4434641e-07
3.3529891e-07
3.25546e-07
3.153985e-07
3.0438155e-07
2.9281836e-07
2.8035442e-07
2.6710537e-07
2.5187313e-07
2.3740208e-07
2.3430806e-07
2.37128e-07
2.4332189e-07
2.5085151e-07
2.5932121e-07
2.6848566e-07
2.7806597e-07
2.8814245e-07
2.9848014e-07
3.0926333e-07
3.2034519e-07
3.3195651e-07
3.4411687e-07
3.572548e-07
3.7205071e-07
3.8837391e-07
4.0565756e-07
4.237721e-07
4.425686e-07
4.619824e-07
4.8188462e-07
5.0213244e-07
5.2250696e-07
5.4275512e-07
5.624943e-07
5.8098691e-07
5.9657642e-07
6.0941159e-07
6.2082617e-07
6.312707e-07
6.4212315e-07
6.4622759e-07
6.4734336e-08
5.6908084e-08
5.1738967e-08
5.0045577e-08
5.0011161e-08
5.0981934e-08
5.2965872e-08
5.6441365e-08
6.2123759e-08
6.9447972e-08
7.9157567e-08
8.9089819e-08
9.7104897e-08
1.137028e-07
1.3682122e-07
1.7655839e-07
7.7343923e-07
1.6082547e-06
2.3967378e-06
3.0791971e-06
3.5351193e-06
3.5665817e-06
3.3324215e-06
2.9115034e-06
4.4647515e-07
2.5295741e-07
1.6948588e-07
1.0755805e-07
9.7221888e-08
6.890169e-07
1.1052017e-05
4.6853785e-06
1.3553955e-05
4.2673212e-06
4.1977469e-07
1.86157e-06
1.5275451e-06
8.6258772e-07
2.8581732e-08
1.6339654e-07
9.1371171e-08
5.2670355e-08
3.0517923e-08
2.0674596e-08
1.6739053e-08
1.4776426e-08
1.3741885e-08
1.3137345e-08
1.2812508e-08
1.253301e-08
1.2324228e-08
1.2139794e-08
1.2049051e-08
1.2122912e-08
1.2427825e-08
1.2906288e-08
1.3567073e-08
1.441297e-08
1.5475106e-08
1.6776525e-08
1.8359902e-08
2.0261391e-08
2.2530975e-08
2.5213324e-08
2.8349398e-08
3.1946271e-08
3.5946076e-08
4.0313985e-08
4.5112891e-08
5.0367837e-08
2.0613948e-06
2.0456927e-06
2.0296675e-06
2.0133365e-06
1.9967062e-06
1.9797892e-06
1.9625925e-06
1.9451331e-06
1.9274136e-06
1.9094469e-06
1.8912275e-06
1.8727696e-06
1.854064e-06
1.8351297e-06
1.8159481e-06
1.7965401e-06
1.7768718e-06
1.7569693e-06
1.7367823e-06
1.7163535e-06
1.6956054e-06
1.674595e-06
1.6532041e-06
1.6315221e-06
1.6093749e-06
1.5868933e-06
1.5638242e-06
1.5403632e-06
1.5161534e-06
1.4914789e-06
1.4658406e-06
1.4396416e-06
1.4121928e-06
1.3840481e-06
1.3542796e-06
1.3236263e-06
1.2908843e-06
1.2569992e-06
1.220478e-06
1.1824414e-06
1.141157e-06
1.0977811e-06
1.0510418e-06
1.0013061e-06
9.4420774e-07
8.9000682e-07
8.7845133e-07
8.8902426e-07
9.122502e-07
9.4055571e-07
9.7237989e-07
1.0068695e-06
1.0429131e-06
1.0808637e-06
1.1197918e-06
1.1604211e-06
1.2021697e-06
1.2459197e-06
1.2917279e-06
1.3412108e-06
1.3968895e-06
1.458069e-06
1.5227427e-06
1.5904025e-06
1.6604473e-06
1.732576e-06
1.8062681e-06
1.8809148e-06
1.9556652e-06
2.029507e-06
2.1009908e-06
2.1673065e-06
2.2223952e-06
2.2670074e-06
2.3060642e-06
2.3412024e-06
2.3771602e-06
2.4007594e-06
2.2639989e-07
1.8013627e-07
1.57401e-07
1.464502e-07
1.4043456e-07
1.3702862e-07
1.3571288e-07
1.3746935e-07
1.426989e-07
1.5095649e-07
1.626793e-07
1.7325035e-07
1.6886375e-07
1.8652942e-07
2.1379632e-07
2.7390318e-07
2.0990349e-06
5.0257162e-06
7.6777723e-06
9.9559563e-06
1.1388265e-05
1.1568934e-05
1.0926668e-05
9.7835792e-06
1.2822527e-06
7.200123e-07
4.7131283e-07
3.4594719e-07
2.9701168e-07
2.5604934e-06
2.3965625e-05
1.2474666e-05
2.9383804e-05
1.1340114e-05
1.1946292e-06
4.9706842e-06
4.0780075e-06
2.307514e-06
7.7521722e-08
4.2840005e-07
2.3705837e-07
1.3526215e-07
7.8376483e-08
5.2683803e-08
4.2872137e-08
3.7786814e-08
3.5326366e-08
3.3774473e-08
3.3071708e-08
3.2396169e-08
3.1960464e-08
3.1538729e-08
3.1382608e-08
3.1615824e-08
3.2461298e-08
3.3743624e-08
3.5506907e-08
3.7743702e-08
4.0547921e-08
4.3970747e-08
4.813135e-08
5.3118754e-08
5.9068397e-08
6.6093972e-08
7.4307549e-08
8.3729504e-08
9.4221218e-08
1.0568956e-07
1.1829992e-07
1.3212248e-07
5.5038314e-06
5.4620717e-06
5.4194426e-06
5.3759903e-06
5.3317322e-06
5.2867022e-06
5.2409191e-06
5.1944274e-06
5.1472352e-06
5.0993763e-06
5.0508366e-06
5.001654e-06
4.951804e-06
4.9013371e-06
4.8502042e-06
4.7984608e-06
4.7460171e-06
4.692942e-06
4.6391027e-06
4.5846116e-06
4.5292634e-06
4.473209e-06
4.4161344e-06
4.3582768e-06
4.2991735e-06
4.2391713e-06
4.177597e-06
4.1149706e-06
4.0503415e-06
3.9844658e-06
3.9160138e-06
3.8460585e-06
3.7727638e-06
3.6976043e-06
3.618107e-06
3.5362396e-06
3.4487938e-06
3.3582872e-06
3.2607404e-06
3.1591375e-06
3.0488612e-06
2.9329876e-06
2.8081265e-06
2.6752502e-06
2.5228574e-06
2.3784717e-06
2.3478936e-06
2.3761777e-06
2.4382926e-06
2.5140075e-06
2.5991328e-06
2.6914032e-06
2.7878306e-06
2.8893716e-06
2.9935287e-06
3.1022462e-06
3.2139566e-06
3.3310303e-06
3.4536204e-06
3.5860596e-06
3.7350256e-06
3.8985634e-06
4.0713781e-06
4.2521199e-06
4.4391646e-06
4.6317063e-06
4.8283287e-06
5.0273769e-06
5.2265651e-06
5.4231717e-06
5.6133205e-06
5.7894392e-06
5.9354837e-06
6.0536327e-06
6.1569482e-06
6.2497413e-06
6.3432693e-06
6.4238173e-06
6.4921178e-07
4.8914345e-07
4.2546506e-07
3.9355284e-07
3.7456537e-07
3.6250194e-07
3.5603085e-07
3.5751062e-07
3.676396e-07
3.8578995e-07
4.1322728e-07
4.3834766e-07
4.1399205e-07
4.534188e-07
5.2119062e-07
6.4995725e-07
5.3281234e-06
1.3074799e-05
2.0025626e-05
2.5976955e-05
2.9685875e-05
3.018101e-05
2.8543232e-05
2.5648647e-05
3.7572371e-06
2.0397178e-06
1.3171837e-06
9.7418148e-07
8.3002353e-07
6.8383255e-06
4.2799662e-05
2.7180061e-05
5.2486528e-05
2.4690822e-05
2.9418383e-06
1.0896533e-05
8.9226676e-06
5.059247e-06
1.8242897e-07
9.340504e-07
5.1480794e-07
2.9326366e-07
1.6993103e-07
1.1398146e-07
9.2778204e-08
8.1726333e-08
7.6467436e-08
7.3104493e-08
7.1635277e-08
7.0192693e-08
6.9291993e-08
6.8401654e-08
6.8093006e-08
6.8609571e-08
7.0456906e-08
7.3246806e-08
7.7082251e-08
8.1941005e-08
8.8031491e-08
9.5461057e-08
1.0449111e-07
1.1531257e-07
1.2822114e-07
1.4346245e-07
1.6128235e-07
1.817282e-07
2.0450693e-07
2.2941371e-07
2.5680567e-07
2.8683836e-07
1.2033764e-05
1.1942551e-05
1.1849434e-05
1.1754514e-05
1.165783e-05
1.1559453e-05
1.1459428e-05
1.1357849e-05
1.1254736e-05
1.1150162e-05
1.1044096e-05
1.0936621e-05
1.0827684e-05
1.0717395e-05
1.0605646e-05
1.049256e-05
1.037794e-05
1.0261937e-05
1.014426e-05
1.0025155e-05
9.9041731e-06
9.7816448e-06
9.6568839e-06
9.5304082e-06
9.4012072e-06
9.2700381e-06
9.1354306e-06
8.99852e-06
8.8572296e-06
8.7132117e-06
8.5635597e-06
8.4106193e-06
8.2503765e-06
8.0860555e-06
7.9122498e-06
7.7332613e-06
7.5420759e-06
7.3441981e-06
7.1309273e-06
6.9087885e-06
6.6676861e-06
6.4143438e-06
6.1413327e-06
5.8508009e-06
5.517918e-06
5.2031553e-06
5.1369604e-06
5.198892e-06
5.3348643e-06
5.5006071e-06
5.6869537e-06
5.8889524e-06
6.1000603e-06
6.3223623e-06
6.5503977e-06
6.7884257e-06
7.0330115e-06
7.2893537e-06
7.557801e-06
7.8478537e-06
8.1739752e-06
8.5317965e-06
8.9098188e-06
9.305127e-06
9.7141573e-06
1.0135145e-05
1.0564968e-05
1.0999993e-05
1.1435224e-05
1.186467e-05
1.2279831e-05
1.2664044e-05
1.2982519e-05
1.3240325e-05
1.3465859e-05
1.3668438e-05
1.3869302e-05
1.4055066e-05
1.58275e-06
1.1462068e-06
9.9407782e-07
9.1610828e-07
8.6769043e-07
8.3541707e-07
8.1650474e-07
8.1612742e-07
8.3605292e-07
8.7548879e-07
9.3800908e-07
9.9612953e-07
9.2691919e-07
1.0175727e-06
1.1821253e-06
1.4571909e-06
1.1532698e-05
2.8377064e-05
4.3442901e-05
5.6306209e-05
6.4300204e-05
6.5386427e-05
6.1860257e-05
5.5645281e-05
9.5354198e-06
5.037735e-06
3.2158271e-06
2.3699804e-06
2.0104115e-06
1.49787e-05
6.825445e-05
5.1907139e-05
8.3722497e-05
4.7134277e-05
6.5659212e-06
2.0999055e-05
1.7139616e-05
9.7450368e-06
3.9359264e-07
1.791601e-06
9.8585913e-07
5.6149766e-07
3.2535864e-07
2.1797848e-07
1.7732585e-07
1.5613803e-07
1.4609886e-07
1.396635e-07
1.3687911e-07
1.341366e-07
1.3243926e-07
1.3075165e-07
1.3017291e-07
1.3115534e-07
1.3467948e-07
1.4000428e-07
1.4732798e-07
1.5660475e-07
1.6823446e-07
1.824202e-07
1.9966243e-07
2.2032467e-07
2.4497259e-07
2.7407535e-07
3.08105e-07
3.4715785e-07
3.906825e-07
4.3828303e-07
4.9063671e-07
5.4804468e-07
2.3087871e-05
2.2913007e-05
2.2734487e-05
2.2552503e-05
2.2367129e-05
2.2178505e-05
2.1986713e-05
2.1791938e-05
2.1594213e-05
2.1393681e-05
2.1190284e-05
2.0984178e-05
2.0775264e-05
2.0563751e-05
2.0349435e-05
2.0132548e-05
1.9912715e-05
1.9690223e-05
1.9464517e-05
1.9236068e-05
1.9004016e-05
1.8768993e-05
1.8529683e-05
1.8287081e-05
1.8039248e-05
1.7787636e-05
1.7529426e-05
1.7266796e-05
1.6995761e-05
1.6719493e-05
1.6432414e-05
1.6139027e-05
1.583163e-05
1.5516409e-05
1.5182993e-05
1.4839636e-05
1.447288e-05
1.4093289e-05
1.3684169e-05
1.3258041e-05
1.2795533e-05
1.2309547e-05
1.1785779e-05
1.1228414e-05
1.0590408e-05
9.9883346e-06
9.8625934e-06
9.9815592e-06
1.0242707e-05
1.0561021e-05
1.0918928e-05
1.1306915e-05
1.1712413e-05
1.2139418e-05
1.2577447e-05
1.3034674e-05
1.3504514e-05
1.3996961e-05
1.4512712e-05
1.5070048e-05
1.5696441e-05
1.6383359e-05
1.7108887e-05
1.7867494e-05
1.8652357e-05
1.9460034e-05
2.0284531e-05
2.1118884e-05
2.1953456e-05
2.2776733e-05
2.3572355e-05
2.4308183e-05
2.4918008e-05
2.5412116e-05
2.5844667e-05
2.6233274e-05
2.6612041e-05
2.693994e-05
3.4881097e-06
2.4566523e-06
2.1243823e-06
1.9510095e-06
1.8396597e-06
1.7626331e-06
1.7144787e-06
1.7057125e-06
1.7404669e-06
1.818177e-06
1.9470601e-06
2.0666057e-06
1.8951294e-06
2.0816014e-06
2.4347617e-06
2.9898335e-06
2.2221313e-05
5.4274528e-05
8.2955381e-05
0.00010737779
0.00012252603
0.00012462061
0.00011793791
0.00010615176
2.1578715e-05
1.1224929e-05
7.1119011e-06
5.2409388e-06
4.4301604e-06
2.8842342e-05
0.0001016931
9.0358396e-05
0.0001247478
8.2034363e-05
1.3633274e-05
3.7003474e-05
3.0057715e-05
1.7148127e-05
8.0420281e-07
3.1375888e-06
1.7259366e-06
9.83126e-07
5.6966261e-07
3.8128651e-07
3.0993156e-07
2.7279527e-07
2.5522371e-07
2.4396274e-07
2.3910736e-07
2.3433102e-07
2.3138398e-07
2.2844774e-07
2.2743794e-07
2.2913532e-07
2.3526648e-07
2.4454524e-07
2.573151e-07
2.7349368e-07
2.9377904e-07
3.1852418e-07
3.4860298e-07
3.846492e-07
4.2765043e-07
4.7842611e-07
5.3780344e-07
6.0596057e-07
6.8194767e-07
7.6506556e-07
8.5648708e-07
9.5674439e-07
4.041748e-05
4.0111699e-05
3.9799506e-05
3.9481241e-05
3.9157032e-05
3.8827125e-05
3.8491661e-05
3.8150965e-05
3.7805096e-05
3.7454302e-05
3.7098483e-05
3.6737913e-05
3.6372416e-05
3.6002361e-05
3.562739e-05
3.5247908e-05
3.4863259e-05
3.4473949e-05
3.4079004e-05
3.3679249e-05
3.3273178e-05
3.2861899e-05
3.2443109e-05
3.2018549e-05
3.1584827e-05
3.1144484e-05
3.0692587e-05
3.0232947e-05
2.9758593e-05
2.9275074e-05
2.877263e-05
2.8259141e-05
2.7721129e-05
2.7169423e-05
2.6585869e-05
2.5984915e-05
2.534301e-05
2.4678642e-05
2.3962589e-05
2.3216776e-05
2.2407284e-05
2.1556698e-05
2.063987e-05
1.9664262e-05
1.8548541e-05
1.7497723e-05
1.7279722e-05
1.7488183e-05
1.7945771e-05
1.8503509e-05
1.9130691e-05
1.9810616e-05
2.0521263e-05
2.126962e-05
2.2037329e-05
2.2838683e-05
2.3662177e-05
2.4525338e-05
2.5429426e-05
2.6406517e-05
2.7504226e-05
2.8707371e-05
2.997786e-05
3.1306069e-05
3.2680114e-05
3.4093893e-05
3.5536889e-05
3.6996922e-05
3.8457002e-05
3.9896923e-05
4.1288008e-05
4.2573786e-05
4.363939e-05
4.4503624e-05
4.5260649e-05
4.5941015e-05
4.6592548e-05
4.7055787e-05
7.1745281e-06
4.9689368e-06
4.2874365e-06
3.9267725e-06
3.6887344e-06
3.5188839e-06
3.4067903e-06
3.372642e-06
3.4247295e-06
3.5638137e-06
3.8061946e-06
4.0277677e-06
3.6315388e-06
3.9708983e-06
4.6493838e-06
5.689163e-06
3.9447352e-05
9.4869236e-05
0.00014460379
0.00018684157
0.00021298723
0.00021668277
0.00020515578
0.00018476548
4.4573171e-05
2.3097155e-05
1.4603409e-05
1.0818823e-05
9.1279574e-06
5.0785683e-05
0.00014535351
0.00014688745
0.0001782549
0.00013336388
2.6681827e-05
6.1087734e-05
4.9296948e-05
2.8235033e-05
1.5785974e-06
5.137639e-06
2.8271796e-06
1.6106753e-06
9.332607e-07
6.240827e-07
5.0685189e-07
4.4595321e-07
4.1715426e-07
3.9871734e-07
3.9078102e-07
3.8299439e-07
3.7819677e-07
3.7341208e-07
3.717554e-07
3.7449358e-07
3.8446543e-07
3.9958654e-07
4.2041059e-07
4.4680106e-07
4.7989661e-07
5.2027207e-07
5.6935383e-07
6.2817612e-07
6.9835124e-07
7.8121832e-07
8.7813278e-07
9.8940155e-07
1.1134931e-06
1.2492537e-06
1.398582e-06
1.5623565e-06
6.612306e-05
6.5623651e-05
6.5113732e-05
6.4593853e-05
6.4064225e-05
6.3525252e-05
6.2977164e-05
6.2420491e-05
6.1855329e-05
6.1282086e-05
6.0700596e-05
6.0111309e-05
5.951394e-05
5.8909088e-05
5.829617e-05
5.7675849e-05
5.7047054e-05
5.641061e-05
5.5764927e-05
5.5111354e-05
5.4447429e-05
5.3774964e-05
5.3090198e-05
5.2395972e-05
5.1686743e-05
5.0966668e-05
5.0227681e-05
4.9476013e-05
4.8700268e-05
4.7909517e-05
4.7087807e-05
4.6248016e-05
4.5368112e-05
4.4465799e-05
4.3511395e-05
4.2528526e-05
4.1478679e-05
4.0392085e-05
3.9220959e-05
3.8001156e-05
3.6677194e-05
3.5286001e-05
3.3786226e-05
3.2190329e-05
3.0366889e-05
2.8652785e-05
2.8299381e-05
2.8640646e-05
2.9389861e-05
3.0303062e-05
3.1330126e-05
3.2443629e-05
3.3607528e-05
3.4833219e-05
3.6090688e-05
3.7403269e-05
3.875217e-05
4.0166101e-05
4.1647216e-05
4.3248062e-05
4.504578e-05
4.7015094e-05
4.9094159e-05
5.1267346e-05
5.3515217e-05
5.582781e-05
5.818779e-05
6.0575091e-05
6.2961959e-05
6.5315217e-05
6.7587794e-05
6.9687103e-05
7.1426987e-05
7.2839541e-05
7.4077704e-05
7.5190841e-05
7.6237941e-05
7.6748788e-05
1.3981285e-05
9.6209052e-06
8.2951272e-06
7.5864709e-06
7.1089917e-06
6.7598652e-06
6.5195976e-06
6.425324e-06
6.4916053e-06
6.7228213e-06
7.1486391e-06
7.5324024e-06
6.6967672e-06
7.2626633e-06
8.4750992e-06
1.0312981e-05
6.5974084e-05
0.00015509233
0.00023542573
0.00030346038
0.00034546608
0.0003515578
0.00033306345
0.00030021355
8.540131e-05
4.4550323e-05
2.8252172e-05
2.1125859e-05
1.7827043e-05
8.3777447e-05
0.00020249049
0.00022655995
0.00024811699
0.00020577715
4.9553904e-05
9.5982807e-05
7.6815489e-05
4.4186395e-05
2.9910936e-06
7.9916797e-06
4.400598e-06
2.5073679e-06
1.4527443e-06
9.7059681e-07
7.8756709e-07
6.9268096e-07
6.4782221e-07
6.1914271e-07
6.068096e-07
5.9474769e-07
5.8732209e-07
5.7991242e-07
5.7732624e-07
5.8151974e-07
5.9692402e-07
6.2033303e-07
6.5259213e-07
6.9348799e-07
7.4478432e-07
8.0737102e-07
8.8345936e-07
9.746526e-07
1.0834514e-06
1.2119347e-06
1.3622115e-06
1.5347835e-06
1.7273041e-06
1.9379643e-06
2.169684e-06
2.4238398e-06
0.00010268572
0.0001019122
0.00010112231
0.0001003169
9.9496286e-05
9.8661107e-05
9.7811713e-05
9.6948928e-05
9.6072903e-05
9.5184267e-05
9.4282767e-05
9.3369101e-05
9.2442829e-05
9.1504877e-05
9.0554345e-05
8.959226e-05
8.8616966e-05
8.7629739e-05
8.6628118e-05
8.5614192e-05
8.4584148e-05
8.3540792e-05
8.2478294e-05
8.1401063e-05
8.0300503e-05
7.9183056e-05
7.803622e-05
7.6869651e-05
7.5665683e-05
7.4438374e-05
7.3162987e-05
7.1859491e-05
7.0493713e-05
6.9093107e-05
6.7611636e-05
6.6085936e-05
6.4456263e-05
6.2769508e-05
6.0951524e-05
5.9057938e-05
5.7002635e-05
5.4842889e-05
5.2514102e-05
5.0036074e-05
4.7207182e-05
4.4552729e-05
4.4008472e-05
4.453858e-05
4.5702865e-05
4.7122069e-05
4.871855e-05
5.044956e-05
5.2259124e-05
5.4164789e-05
5.6120025e-05
5.816097e-05
6.0258538e-05
6.2457271e-05
6.4760729e-05
6.7250503e-05
7.0045234e-05
7.3104986e-05
7.6334464e-05
7.9709633e-05
8.3200278e-05
8.6790809e-05
9.0454164e-05
9.4158968e-05
9.786219e-05
0.00010151218
0.00010503556
0.00010828826
0.00011098435
0.0001131756
0.00011509749
0.00011682571
0.00011842305
0.00011877664
2.5986782e-05
1.7929016e-05
1.5475268e-05
1.4156569e-05
1.3255802e-05
1.2585928e-05
1.2111827e-05
1.18999e-05
1.1972936e-05
1.2343362e-05
1.3062668e-05
1.3710216e-05
1.2110366e-05
1.3012123e-05
1.5097721e-05
1.8244955e-05
0.00010546166
0.0002407559
0.00036335414
0.00046685717
0.00053053656
0.00054002202
0.00051202116
0.000462085
0.00015348658
8.1361595e-05
5.1966181e-05
3.9300304e-05
3.3230087e-05
0.00013152936
0.00027750562
0.00033519931
0.00033950217
0.0003046758
8.7661168e-05
0.00014507361
0.00011496059
6.6430482e-05
5.4746321e-06
1.1940678e-05
6.5789951e-06
3.7486825e-06
2.1717641e-06
1.4496814e-06
1.1752273e-06
1.0332495e-06
9.6613995e-07
9.2329952e-07
9.0488964e-07
8.8694744e-07
8.7590844e-07
8.6488948e-07
8.6101144e-07
8.6717674e-07
8.9002494e-07
9.2482397e-07
9.7281085e-07
1.0336672e-06
1.1100156e-06
1.2031789e-06
1.3164488e-06
1.4522124e-06
1.614193e-06
1.8054894e-06
2.0292523e-06
2.2862646e-06
2.5730769e-06
2.8869654e-06
3.2322393e-06
3.6109702e-06
0.00015298711
0.00015183926
0.0001506669
0.00014947129
0.00014825291
0.0001470127
0.00014575119
0.0001444696
0.00014316815
0.00014184779
0.00014050813
0.00013915022
0.00013777341
0.00013637907
0.00013496587
0.00013353534
0.00013208501
0.00013061678
0.00012912701
0.00012761879
0.00012608646
0.00012453419
0.00012295332
0.00012135039
0.00011971264
0.00011804964
0.0001163428
0.00011460647
0.00011281439
0.00011098745
0.00010908887
0.00010714833
0.00010511502
0.00010302974
0.00010082403
9.8552351e-05
9.6125841e-05
9.3614208e-05
9.0907143e-05
8.8087372e-05
8.5026713e-05
8.1810316e-05
7.8341269e-05
7.464983e-05
7.0439141e-05
6.6494748e-05
6.568974e-05
6.6479389e-05
6.8214977e-05
7.033085e-05
7.2711681e-05
7.5293481e-05
7.7992871e-05
8.0835702e-05
8.3752809e-05
8.6797824e-05
8.9927628e-05
9.3208442e-05
9.6645943e-05
0.00010036134
0.00010452992
0.00010909103
0.00011390395
0.00011893305
0.00012413341
0.00012948133
0.00013493639
0.00014045156
0.00014596269
0.00015139264
0.00015663178
0.00016146521
0.00016547233
0.00016873258
0.00017159346
0.00017416673
0.00017650504
0.00017635054
4.620699e-05
3.2199829e-05
2.7875708e-05
2.5549304e-05
2.3949274e-05
2.2748261e-05
2.1885797e-05
2.1478065e-05
2.1556919e-05
2.2150379e-05
2.3345869e-05
2.4441254e-05
2.1637632e-05
2.3055564e-05
2.6574912e-05
3.1884033e-05
0.00016264899
0.0003585513
0.00053698248
0.00068704731
0.00077892839
0.00079295538
0.00075255026
0.00068030016
0.00026069826
0.00014155509
9.1358797e-05
6.9920838e-05
5.9322789e-05
0.00019861901
0.00037606349
0.00047937532
0.00045895139
0.00043623291
0.00014807888
0.00021247987
0.00016651745
9.6677801e-05
9.676504e-06
1.7275166e-05
9.5204027e-06
5.4241412e-06
3.1420336e-06
2.0954573e-06
1.6971577e-06
1.4915718e-06
1.3944107e-06
1.332486e-06
1.3058892e-06
1.2800644e-06
1.2641834e-06
1.2483283e-06
1.2427017e-06
1.2514724e-06
1.2842649e-06
1.3343253e-06
1.4034023e-06
1.4910376e-06
1.6010041e-06
1.7352053e-06
1.8983822e-06
2.093974e-06
2.3273443e-06
2.602962e-06
2.9253803e-06
3.295778e-06
3.7092468e-06
4.1618236e-06
4.659657e-06
5.2057601e-06
0.00022030423
0.00021866094
0.00021698213
0.00021526959
0.00021352402
0.00021174676
0.00020993857
0.0002081012
0.00020623498
0.00020434124
0.00020241949
0.00020047118
0.0001984954
0.00019649412
0.00019446545
0.00019241155
0.00019032892
0.00018822028
0.0001860804
0.00018391371
0.00018171212
0.00017948157
0.00017720968
0.0001749058
0.00017255165
0.0001701609
0.00016770694
0.00016521031
0.00016263333
0.00016000596
0.0001572754
0.00015448423
0.00015155949
0.00014855973
0.00014538662
0.00014211831
0.00013862717
0.00013501323
0.00013111799
0.00012706023
0.00012265562
0.00011802639
0.00011303185
0.0001077168
0.00010165855
9.5992058e-05
9.4839541e-05
9.5975878e-05
9.8476277e-05
0.00010152527
0.00010495733
0.00010867976
0.00011257256
0.00011667244
0.0001208801
0.00012527236
0.00012978753
0.00013452057
0.00013948027
0.00014484051
0.00015085144
0.00015742413
0.00016435798
0.00017160159
0.00017909032
0.00018678933
0.00019464023
0.00020257488
0.00021050061
0.00021830611
0.00022583325
0.00023277265
0.00023852733
0.00024321457
0.00024732907
0.00025103047
0.00025434025
0.00025316565
7.8734138e-05
5.5727521e-05
4.8467222e-05
4.4571595e-05
4.1891232e-05
3.9875324e-05
3.8424859e-05
3.7738782e-05
3.7855439e-05
3.8830161e-05
4.080878e-05
4.2684351e-05
3.815873e-05
4.0404196e-05
4.6265923e-05
5.5129614e-05
0.00024350472
0.00051595562
0.00076515433
0.00097372111
0.001100601
0.0011203399
0.0010643661
0.00096426851
0.00042061741
0.0002354526
0.00015396648
0.00011924323
0.0001016155
0.00029056733
0.00050515705
0.00066627123
0.00061436912
0.00060731749
0.00023938693
0.00030308779
0.00023474537
0.00013696057
1.6510747e-05
2.4346063e-05
1.3412132e-05
7.6393375e-06
4.4244526e-06
2.9480359e-06
2.3854236e-06
2.095695e-06
1.9587872e-06
1.8716775e-06
1.8342797e-06
1.7981086e-06
1.7758749e-06
1.7536758e-06
1.7457345e-06
1.7578782e-06
1.8036822e-06
1.8737715e-06
1.9705483e-06
2.0933725e-06
2.2475257e-06
2.4356738e-06
2.6644616e-06
2.9387107e-06
3.2659393e-06
3.6524185e-06
4.1045489e-06
4.6240509e-06
5.2041292e-06
5.8391723e-06
6.5377144e-06
7.3040156e-06
0.00030825842
0.00030597823
0.00030364794
0.00030126998
0.00029884533
0.00029637587
0.00029386265
0.0002913081
0.00028871269
0.00028607828
0.00028340417
0.00028069242
0.00027794176
0.00027515492
0.00027232928
0.00026946786
0.0002665658
0.00026362688
0.00026064383
0.00025762281
0.00025455256
0.00025144137
0.00024827199
0.00024505742
0.00024177223
0.00023843542
0.00023500996
0.00023152438
0.00022792625
0.00022425719
0.00022044372
0.00021654501
0.00021245944
0.00020826848
0.00020383509
0.00019926805
0.00019438939
0.00018933842
0.00018389401
0.00017822162
0.0001720639
0.00016559103
0.00015860434
0.00015116838
0.00014269798
0.00013478558
0.00013317933
0.00013476735
0.00013826729
0.00014253674
0.00014734491
0.0001525611
0.00015801769
0.00016376498
0.00016966472
0.00017582348
0.00018215568
0.00018879359
0.00019574996
0.00020326747
0.0002116925
0.00022089839
0.00023060745
0.00024074735
0.00025122751
0.00026199817
0.00027297726
0.0002840684
0.00029514183
0.00030604128
0.00031654545
0.00032622207
0.0003342494
0.00034079491
0.00034654194
0.00035171226
0.0003562669
0.00035340446
0.00012877135
9.2932643e-05
8.130505e-05
7.5102287e-05
7.0858523e-05
6.7683537e-05
6.5423202e-05
6.4409812e-05
6.4678441e-05
6.6327966e-05
6.9596026e-05
7.2828859e-05
6.6095527e-05
6.9709045e-05
7.9333257e-05
9.3937671e-05
0.0003553251
0.00072100997
0.0010563618
0.0013352965
0.0015035847
0.0015300213
0.0014551651
0.0013217752
0.00064717503
0.00037526302
0.00024921342
0.00019525819
0.00016724602
0.00041381673
0.00067305175
0.0009033464
0.00081484171
0.00082524361
0.00037121752
0.00042249418
0.00032338426
0.00018967866
2.7194113e-05
3.3578346e-05
1.8475562e-05
1.0518227e-05
6.090358e-06
4.0543195e-06
3.2774554e-06
2.8783473e-06
2.6897822e-06
2.5700164e-06
2.5186159e-06
2.4691034e-06
2.4386811e-06
2.4083075e-06
2.3973585e-06
2.4137969e-06
2.4763339e-06
2.5722597e-06
2.7047936e-06
2.8730651e-06
3.0843e-06
3.3421483e-06
3.6557111e-06
4.0315949e-06
4.480099e-06
5.0098203e-06
5.6295478e-06
6.3417263e-06
7.1371633e-06
8.008094e-06
8.9660839e-06
1.0017018e-05
0.00042069085
0.00041761515
0.00041447037
0.00041125971
0.00040798454
0.00040464735
0.00040124961
0.00039779458
0.00039428292
0.00039071715
0.00038709634
0.00038342326
0.00037969624
0.00037591894
0.00037208786
0.00036820706
0.00036427002
0.00036028181
0.00035623264
0.0003521308
0.0003479611
0.00034373469
0.00033942828
0.0003350594
0.00033059362
0.00032605664
0.00032139827
0.0003166571
0.00031176207
0.0003067695
0.0003015797
0.0002962728
0.00029071092
0.00028500438
0.00027896718
0.00027274668
0.00026610117
0.00025921948
0.00025180102
0.00024407024
0.00023567691
0.00022685174
0.00021732062
0.00020717453
0.00019562257
0.00018484262
0.00018265425
0.00018481738
0.0001895954
0.0001954272
0.00020199901
0.0002091307
0.0002165941
0.00022445609
0.00023252916
0.00024095712
0.00024962452
0.0002587107
0.00026823307
0.000278523
0.00029004673
0.0003026286
0.00031589388
0.00032974281
0.00034405162
0.00035875062
0.00037372664
0.00038884677
0.00040393426
0.00041877464
0.00043306603
0.0004462207
0.00045713733
0.00046604872
0.00047387428
0.00048091457
0.00048703227
0.00048169111
0.00020253435
0.0001493993
0.00013160732
0.00012219488
0.00011582823
0.00011112573
0.00010785933
0.00010656821
0.00010726199
0.00011010235
0.00011546496
0.00012100382
0.00011181997
0.00011771771
0.00013322683
0.00015683618
0.00050675643
0.00098194513
0.0014179835
0.0017778528
0.0019927718
0.0020264454
0.0019293746
0.0017577613
0.000952858
0.00057414804
0.00038803584
0.00030749368
0.00026487335
0.00057554568
0.0008889985
0.0011977131
0.0010701586
0.0010972614
0.00055351734
0.00057682068
0.00043660812
0.00025761338
4.3285334e-05
4.54884e-05
2.4971879e-05
1.4205719e-05
8.2228985e-06
5.4688782e-06
4.4167336e-06
3.8775384e-06
3.6228309e-06
3.4613528e-06
3.3920682e-06
3.325611e-06
3.2847921e-06
3.2440451e-06
3.2292514e-06
3.2510825e-06
3.3348269e-06
3.4635979e-06
3.6416192e-06