y,R_0,R_1,R_2,R_3,R_4,R_5
0.4481146,6.6666667e-11,0,0,6.6666667e-11,0,6.6666667e-11
0.44853879,1.0470806e-07,-6.3207733e-12,1.6307877e-28,1.0465883e-07,-2.9126244e-28,1.0468345e-07
0.44897681,2.6272644e-07,-8.8760695e-11,1.2418768e-26,2.6204146e-07,-1.4506637e-26,2.62384e-07
0.44942906,1.0522998e-06,-7.5766883e-10,-1.1022988e-25,1.0464972e-06,1.4235794e-25,1.0493985e-06
0.44989599,3.048482e-06,-3.9091897e-09,-3.4331945e-25,3.0187557e-06,3.0037929e-25,3.0336188e-06
0.4503781,7.0889843e-06,-1.4583209e-08,8.5593708e-25,6.9789051e-06,-1.5070912e-24,7.0339448e-06
0.45087586,1.4255341e-05,-4.3691622e-08,8.9476943e-24,1.3928068e-05,-1.1956583e-23,1.4091705e-05
0.4513898,2.5906501e-05,-1.1197437e-07,1.3826491e-23,2.5074414e-05,-8.2480311e-24,2.5490459e-05
0.45192042,4.3725104e-05,-2.5550169e-07,-6.6284571e-23,4.184204e-05,1.0014177e-22,4.2783575e-05
0.45246829,6.9771095e-05,-5.3304962e-07,-1.366966e-22,6.5875801e-05,1.203352e-22,6.7823454e-05
0.45303395,0.00010653839,-1.035591e-06,2.480799e-22,9.9037116e-05,-4.2330483e-22,0.00010278777
0.45361798,0.00015700755,-1.8978752e-06,3.9069062e-22,0.00014338541,-2.6360701e-22,0.00015019651
0.45422098,0.00022468111,-3.3114526e-06,-3.3615813e-22,0.00020113831,4.7386723e-22,0.00021290976
0.45484357,0.00031357954,-5.5373569e-06,-2.673239e-22,0.00027460392,5.5754328e-22,0.00029409183
0.45548638,0.00042816456,-8.9148227e-06,-5.1490803e-22,0.00036608043,2.5913672e-22,0.00039712267
0.45615006,0.00057314483,-1.3860126e-05,2.2483452e-21,0.00047772276,-2.8866213e-21,0.00052543406
0.45683531,0.00075311781,-2.0847682e-05,4.0461411e-22,0.00061138677,2.7238901e-21,0.00068225268
0.4575428,0.00097202068,-3.0366061e-05,-6.1756928e-21,0.00076847176,5.5790911e-21,0.00087024669
0.45827328,0.0012324226,-4.2847785e-05,3.8881519e-21,0.00094978891,-6.9229497e-21,0.0010911062
0.45902747,0.0015347872,-5.8584303e-05,6.9752923e-21,0.0011554807,-4.5821875e-21,0.001345134
0.45980616,0.0018769332,-7.7653632e-05,-1.0732416e-20,0.0013849933,1.9387832e-20,0.0016309626
0.46061014,0.0022539468,-9.9895487e-05,-2.036633e-20,0.0016370871,3.1763844e-21,0.0019455153
0.46144023,0.002658681,-0.00012495451,1.9501242e-20,0.0019098687,-3.6102852e-20,0.0022842721
0.46229727,0.0030827435,-0.00015238237,2.4642992e-20,0.0022008528,-7.8427314e-21,0.0026417945
0.46318214,0.0035176683,-0.00018175884,-1.1278487e-20,0.002507077,2.687295e-20,0.0030123686
0.46409575,0.0039559132,-0.00021278627,-1.897332e-20,0.0028252876,1.4205632e-20,0.0033905965
0.46503902,0.0043914597,-0.00024533274,-9.3847512e-21,0.0031521739,-1.489941e-20,0.0037718138
0.46601292,0.0048199845,-0.00027942458,1.7530214e-20,0.0034846055,-2.3438869e-20,0.0041522931
0.46701845,0.0052387167,-0.00031520828,1.4865895e-20,0.0038198163,1.3178695e-20,0.0045292659
0.46805662,0.0056461391,-0.00035290467,-3.8188038e-20,0.0041555088,3.4342883e-20,0.0049008245
0.46912849,0.0060416522,-0.00039276919,-4.9245228e-20,0.0044898851,-6.0833724e-20,0.0052657707
0.47023517,0.006425279,-0.00043506356,1.0646342e-19,0.004821618,-6.5475967e-20,0.0056234519
0.47137778,0.0067974347,-0.00048004039,1.3229329e-19,0.0051497888,1.1611242e-19,0.0059736156
0.47255748,0.0071587544,-0.00052793201,-6.403064e-20,0.0054738151,9.9720832e-20,0.0063162883
0.47377548,0.007509984,-0.00057894898,-7.6250148e-20,0.0057933722,-4.2099233e-20,0.006651683
0.47503301,0.0078519143,-0.00063328837,5.6564736e-21,0.0061083362,-2.0211268e-20,0.0069801307
0.47633137,0.0081853225,-0.00069112697,-3.720837e-20,0.0064187302,-6.8954201e-20,0.0073020318
0.47767188,0.0085109509,-0.00075262587,1.1315194e-19,0.0067246783,4.2767446e-20,0.0076178215
0.47905589,0.0088295028,-0.00081794147,-2.8859586e-20,0.0070263768,9.2376694e-20,0.0079279475
0.48048483,0.0091416301,-0.00088722007,-2.1325653e-19,0.0073240635,-1.1612172e-19,0.0082328551
0.48196014,0.0094479273,-0.00096060269,1.7117891e-20,0.0076180133,-1.5306902e-19,0.0085329776
0.48348334,0.0097489362,-0.0010382247,3.0547687e-19,0.0079085144,1.5487831e-19,0.0088287308
0.48505597,0.01004515,-0.001120216,5.7820976e-20,0.008195853,1.4488157e-19,0.0091205093
0.48667964,0.010337019,-0.0012067117,-6.1654374e-20,0.0084803336,4.2013136e-20,0.0094086862
0.48835599,0.010624952,-0.0012978461,-1.9549792e-19,0.0087622566,-1.0582208e-19,0.0096936127
0.49008674,0.010909316,-0.001393746,-1.3906992e-19,0.0090419033,-1.5221933e-19,0.0099756181
0.49187366,0.011190444,-0.0014945418,3.2699041e-20,0.0093195607,-2.2690904e-20,0.010255011
0.49371855,0.011468637,-0.0016003642,3.494626e-20,0.009595512,-5.8835496e-20,0.010532082
0.4956233,0.011744168,-0.0017113412,4.25248e-19,0.0098700221,2.619946e-19,0.010807101
0.49758984,0.012017287,-0.0018276021,7.4256777e-20,0.010143348,1.8177248e-19,0.011080323
0.49962018,0.012288214,-0.0019492748,-1.8018319e-19,0.010415752,-6.9509303e-20,0.011351987
0.50171638,0.012557146,-0.0020764863,-1.4419937e-19,0.010687486,-7.2501248e-20,0.011622318
0.50388058,0.012824268,-0.0022093606,-3.5260263e-19,0.010958787,-2.4569044e-19,0.011891529
0.50611498,0.013089738,-0.0023480203,-5.2498623e-20,0.0112299,-1.7322057e-19,0.012159819
0.50842185,0.013353697,-0.0024925853,4.3391699e-19,0.011501063,2.6957103e-19,0.012427377
0.51080353,0.013616276,-0.0026431736,-4.275478e-20,0.011772502,4.2657994e-20,0.012694382
0.51326245,0.013877589,-0.0027998941,8.5683788e-20,0.012044438,6.711206e-21,0.012961003
0.51580111,0.01413772,-0.0029628497,3.4310226e-19,0.012317105,2.2495229e-19,0.013227402
0.51842208,0.014396751,-0.0031321447,9.0711492e-21,0.012590738,1.0434871e-19,0.013493731
0.52112804,0.014654763,-0.0033078733,-4.7991606e-19,0.012865547,-2.137678e-19,0.013760137
0.52392172,0.014911806,-0.0034901145,-7.618959e-19,0.013141749,-5.1074813e-19,0.014026758
0.52680597,0.015167908,-0.0036789407,-2.5997863e-19,0.013419583,-2.6905898e-19,0.014293728
0.52978371,0.015423108,-0.0038744262,3.8954505e-20,0.013699284,-3.7796041e-20,0.014561171
0.53285797,0.015677423,-0.0040766131,2.5831621e-19,0.013981053,1.1402651e-19,0.01482921
0.53603187,0.015930851,-0.0042855344,4.1757353e-19,0.014265114,2.7271069e-19,0.015097959
0.53930862,0.016183388,-0.0045012229,1.1551123e-19,0.014551719,1.0754407e-19,0.015367528
0.54269156,0.01643501,-0.0047236752,2.034855e-19,0.014841088,1.1723158e-19,0.015638021
0.54618412,0.016685682,-0.0049528747,2.0135404e-19,0.015133448,1.4397241e-19,0.015909537
0.54978982,0.016935355,-0.0051887857,1.4874381e-20,0.015429038,8.7515714e-20,0.016182171
0.55351233,0.017183976,-0.0054313495,-5.6918589e-19,0.015728094,-3.0408547e-19,0.01645601
0.55735543,0.017431484,-0.0056804845,-2.798708e-19,0.016030849,-2.598523e-19,0.016731138
0.561323,0.017677791,-0.0059360684,3.2163514e-19,0.016337527,2.2712347e-19,0.017007632
0.56541906,0.017922804,-0.0061979576,-8.5767658e-19,0.01664837,-4.6455952e-19,0.017285563
0.56964776,0.018166431,-0.0064659803,1.183489e-19,0.016963609,-3.2358232e-20,0.017564997
0.57177618,0.018284476,-0.0065995169,2.0068689e-19,0.01711954,9.0828518e-20,0.017701984
0.57401366,0.018408563,-0.0067399814,2.8692835e-19,0.017283474,2.2027675e-19,0.017845994
0.57852116,0.018649083,-0.0070197131,-4.2103142e-19,0.017608187,-2.5305202e-19,0.018128607
0.58317458,0.018887859,-0.0073048179,6.5472079e-19,0.017937957,3.2303102e-19,0.018412874
0.5879786,0.019124756,-0.0075949438,-2.4226933e-20,0.018272971,7.6609956e-21,0.018698832
0.5929381,0.019359631,-0.0078896763,4.3882115e-19,0.018613374,1.7486275e-19,0.018986503
0.59805807,0.019592397,-0.0081886461,8.1208704e-19,0.018959469,4.872786e-19,0.019275902
0.60334368,0.019823214,-0.0084918712,-2.7791391e-19,0.019312334,-3.001455e-20,0.019567031
0.60880029,0.020052066,-0.0087987468,-6.2448365e-19,0.019671543,-3.2404585e-19,0.01985988
0.61443337,0.020281124,-0.0091073156,-2.1153789e-19,0.020028973,-1.9324914e-19,0.020154459
0.62024863,0.020524407,-0.009399293,3.9064323e-19,0.020371582,1.5795251e-19,0.020451221
0.62625192,0.02080441,-0.0096284224,2.2965692e-19,0.020692687,1.8761702e-19,0.02075194
0.63244929,0.021126139,-0.0097923748,-5.4334748e-19,0.020993699,-2.3553067e-19,0.021059391
0.63884698,0.021472717,-0.0099391448,-1.7081377e-19,0.02128271,-1.2294237e-19,0.021375522
0.64545143,0.021830107,-0.010090063,-3.7793493e-20,0.021573393,-2.0056904e-20,0.021700859
0.65226929,0.02219551,-0.010245175,-8.2963125e-20,0.021875237,-5.0410525e-20,0.022035372
0.65930742,0.022568574,-0.010404465,1.1468389e-19,0.022189376,4.4359936e-20,0.022378963
0.66657289,0.022948302,-0.010567876,-3.5360341e-20,0.022514775,-5.2093375e-21,0.022731461
0.67407299,0.023333924,-0.010735316,-1.9540375e-19,0.022851418,-1.0960402e-19,0.023092613
0.68181526,0.023724792,-0.010906658,5.1184026e-19,0.023199466,1.8602159e-19,0.023462085
0.68980747,0.024120159,-0.011081734,4.5139159e-19,0.023558856,2.7622149e-19,0.023839463
0.69805763,0.024519158,-0.011260327,-5.2058195e-19,0.023929404,-1.736124e-19,0.024224234
0.70657401,0.024920811,-0.011442171,-2.5119617e-19,0.024310847,-1.6330769e-19,0.024615781
0.71536515,0.025324023,-0.011626938,3.4435473e-19,0.024702817,7.5465584e-20,0.025013372
0.72443983,0.025727586,-0.01181424,6.3158837e-19,0.025104799,3.0044385e-19,0.025416148
0.73380715,0.026130168,-0.012003616,-2.7262845e-19,0.025516137,-8.2911253e-20,0.02582311
0.74347646,0.026530292,-0.012194527,7.3082586e-20,0.025936021,5.1497298e-20,0.026233113
0.75345743,0.026926355,-0.012386355,-7.4570882e-19,0.026363443,-2.4284517e-19,0.026644855
0.76376001,0.027316625,-0.012578396,-4.1401347e-19,0.026797202,-2.2354199e-19,0.027056867
0.77439449,0.027699212,-0.012769855,3.2423982e-19,0.0272359,1.2105894e-19,0.027467508
0.78537146,0.028072091,-0.012959847,-2.8950468e-19,0.027677922,-1.0748321e-19,0.027874962
0.79670186,0.028433111,-0.013147394,2.7619027e-19,0.028121438,5.0906976e-20,0.028277232
0.80839697,0.028779979,-0.013331424,6.7046171e-19,0.028564385,2.0977867e-19,0.02867214
0.8204684,0.029110275,-0.013510775,6.4512006e-19,0.029004475,2.7041497e-19,0.029057334
0.83292817,0.029421456,-0.013684196,-3.1746275e-19,0.029439203,-3.5781687e-20,0.029430286
0.84578863,0.029710874,-0.013850355,-7.6043277e-19,0.029865824,-2.6123606e-19,0.029788307
0.85906255,0.029975809,-0.014007841,2.6326293e-20,0.030281378,-4.2767555e-20,0.03012855
0.87276307,0.030213465,-0.014155176,2.5015158e-19,0.030682691,6.3718488e-20,0.03044803
0.88690376,0.030421009,-0.014290822,2.6643365e-19,0.031066366,8.2275213e-20,0.030743637
0.9014986,0.030595607,-0.014413193,-2.8424909e-20,0.031428808,-6.0373838e-21,0.031012153
0.91656202,0.03073444,-0.014520667,8.2108865e-20,0.031766239,-6.7471838e-21,0.031250274
0.93210888,0.030834745,-0.014611605,4.0369288e-19,0.032074665,1.4127945e-19,0.031454631
0.94815452,0.030893878,-0.014684356,-6.3147288e-19,0.032349851,-1.2043147e-19,0.031621803
0.96471474,0.030909044,-0.014737127,-6.3444954e-19,0.032587083,-1.8800718e-19,0.031748011
0.98180582,0.030876722,-0.014767798,-2.874419e-20,0.032780913,-4.9385349e-20,0.031828745
0.99944458,0.03079541,-0.014775302,3.712952e-19,0.032928278,9.1847638e-20,0.031861742
1.0176483,0.030664538,-0.014759037,-2.7324487e-19,0.03302712,-4.8062358e-20,0.031845721
1.0364349,0.030481339,-0.014717294,1.854798e-19,0.033072749,2.0652313e-20,0.031776945
1.0558227,0.030243437,-0.014648489,4.2935377e-19,0.033060542,9.9014591e-20,0.031651894
1.0758308,0.029949872,-0.014551732,-1.478256e-20,0.032987265,8.3227194e-21,0.031468475
1.0964785,0.029599284,-0.014425976,-1.0633278e-19,0.03284936,-1.6572089e-20,0.031224232
1.1177862,0.029190586,-0.014270369,-3.1015348e-20,0.032643822,-1.9637916e-20,0.030917112
1.1397745,0.028723904,-0.014084727,2.4287988e-19,0.032369319,4.6072139e-20,0.030546516
1.1624649,0.028199546,-0.013869027,-2.439188e-19,0.032025086,-3.3290986e-20,0.030112224
1.1858794,0.027618461,-0.01362361,-2.1584707e-19,0.031611395,-4.3331345e-20,0.029614843
1.2100408,0.026982367,-0.013349241,1.7892176e-19,0.031129683,2.0208899e-20,0.029055945
1.2349723,0.026293833,-0.01304715,1.6002644e-19,0.030582669,2.9799442e-20,0.028438179
1.2606983,0.025556361,-0.012719059,-6.6255248e-20,0.029974445,-9.9730824e-21,0.027765336
1.2872435,0.02477443,-0.012367195,6.0359507e-20,0.029310469,1.0018319e-20,0.027042386
1.3146335,0.023953505,-0.011994275,-1.4218068e-19,0.028597508,-1.7860895e-20,0.02627545
1.3209788,0.023761862,-0.011906566,-9.6401166e-20,0.028428365,-1.1826434e-20,0.026095058
1.3428965,0.023099626,-0.011603133,5.6330097e-20,0.027843518,8.1232209e-21,0.025471518
1.3720585,0.022220394,-0.011197601,-2.617899e-19,0.027057379,-3.157178e-20,0.024638831
1.4021469,0.021323704,-0.010781577,1.2647637e-20,0.0262486,-8.0324727e-21,0.023786097
1.4331904,0.020417679,-0.010358967,4.1025406e-19,0.025426863,4.7934396e-20,0.022922215
1.4652188,0.019510478,-0.0099336276,1.0196648e-20,0.024601489,5.4468596e-21,0.022055927
1.4982627,0.018609984,-0.0095091977,-2.6059275e-20,0.023780852,-8.3890964e-22,0.021195361
1.5323536,0.01772348,-0.0090889448,-3.1540592e-19,0.02297177,-3.0050329e-20,0.020347567
1.567524,0.016857334,-0.0086756371,-2.509728e-20,0.022178938,-5.8658142e-21,0.019518093
1.6038071,0.016016773,-0.008271455,7.4174977e-20,0.0214046,7.942255e-21,0.018710658
1.6412376,0.015205696,-0.0078778626,8.7077016e-20,0.020648951,7.8443147e-21,0.017926978
1.6798508,0.014425793,-0.0074958451,5.319694e-20,0.019908385,5.2369177e-21,0.017166852
1.7196831,0.013682951,-0.0071279832,1.2090384e-19,0.01917225,9.6087223e-21,0.01642839
1.7607723,0.012989339,-0.0067792519,-1.9055986e-19,0.018437017,-1.1436772e-20,0.015713756
1.8018234,0.012345848,-0.0064523201,-4.9321754e-20,0.01772607,-6.948313e-21,0.015035433
1.8415466,0.011740616,-0.006144493,2.3374566e-19,0.01706879,1.8491833e-20,0.014404293
1.8799862,0.011167622,-0.0058524742,-3.7757331e-19,0.016471859,-2.3439865e-20,0.013819733
1.9171847,0.010626235,-0.005574835,2.4213418e-19,0.015928376,1.057547e-20,0.013277222
1.9531836,0.010115224,-0.0053105753,3.4331934e-19,0.01543259,2.1263347e-20,0.012773659
1.9880224,0.0096352772,-0.0050600797,1.3421951e-19,0.01497921,1.0479195e-20,0.012307566
2.0217396,0.0091916025,-0.004825067,-4.0524767e-19,0.014565198,-2.0685763e-20,0.011878343
2.0543721,0.0088068182,-0.0045689115,4.290024e-20,0.014159776,-4.0260372e-21,0.011482868
2.0859558,0.0084861242,-0.0042830348,5.0890918e-19,0.013739744,2.8195092e-20,0.011113634
2.116525,0.0082026824,-0.0040167887,-7.0523066e-19,0.013323752,-2.7743556e-20,0.010763436
2.13776,0.0080163382,-0.0038427082,-4.66084e-19,0.013030438,-2.4876004e-20,0.010523241
2.1461135,0.0079431081,-0.0037742286,-3.6617893e-19,0.012914947,-2.3499725e-20,0.010428742
2.1747538,0.0077026205,-0.0035430202,6.4818569e-19,0.012513183,2.3689364e-20,0.010107938
2.2024761,0.0074776833,-0.0033208819,3.0845092e-19,0.012122106,1.6160628e-20,0.0097999163
2.2293103,0.0072660329,-0.0031061853,-1.2281964e-19,0.011741723,-2.8171319e-21,0.0095038812
2.2552856,0.007065982,-0.002897663,-2.3009093e-19,0.011372521,-8.594602e-21,0.0092192581
2.2804299,0.0068762693,-0.0026946432,-2.0986479e-19,0.011014926,-8.0849887e-21,0.0089456176
2.3047701,0.0066961383,-0.0024966017,-2.1519361e-19,0.010669035,-1.0206687e-20,0.0086826103
2.3283326,0.0065249089,-0.002303258,2.6987344e-19,0.010334945,7.1037101e-21,0.0084299303
2.3511425,0.0063616911,-0.0021147349,7.8749014e-20,0.01001297,5.7628438e-21,0.0081873273
2.3732242,0.0062060878,-0.0019309574,-2.3882694e-19,0.0097030717,-8.2153914e-21,0.0079545925
2.3946014,0.0060579978,-0.0017518143,1.1890595e-19,0.0094050097,2.418793e-21,0.0077315156
2.4152968,0.0059171426,-0.0015773503,-2.9876907e-20,0.0091186176,5.7936772e-22,0.0075178834
2.4353325,0.0057832832,-0.0014075782,-1.356663e-19,0.0088436998,-3.7861283e-21,0.0073134924
2.4547298,0.0056562091,-0.001242503,-4.3507527e-20,0.0085800776,-2.3910674e-21,0.007118148
2.4735093,0.0055357454,-0.0010821179,3.1917995e-20,0.0083275648,1.6357192e-21,0.006931666
2.4916909,0.0054217515,-0.00092639862,-1.2915024e-19,0.008085981,-3.9293496e-21,0.006753875
2.509294,0.0053140714,-0.0007752703,1.2830972e-19,0.0078551561,1.5138502e-21,0.0065846166
2.526337,0.0052125573,-0.00062866902,1.3521042e-19,0.0076349316,4.4257676e-21,0.0064237468
2.542838,0.0051170922,-0.00048652511,-1.8477438e-20,0.0074251651,9.3308841e-22,0.0062711377
2.5588145,0.0050276126,-0.00034873722,-7.2301196e-20,0.0072257301,-2.6843309e-21,0.0061266775
2.5742833,0.0049440282,-0.00021521099,1.169127e-19,0.0070365164,2.6693658e-21,0.0059902709
2.5892607,0.0048662434,-8.5837851e-05,-8.4826313e-20,0.0068574291,-2.0412054e-22,0.0058618389
2.6037624,0.0047942366,3.948738e-05,-8.8567333e-20,0.006688388,-4.5742668e-21,0.0057413182
2.6178038,0.0047279875,0.00016090191,2.2106396e-19,0.0065293262,5.5510957e-21,0.0056286603
2.6313994,0.00466746,0.0002785366,-1.768669e-19,0.0063801884,-9.754591e-22,0.00552383
2.6445637,0.004612668,0.00039247417,-1.0295033e-19,0.0062409277,-3.8155844e-21,0.0054268034
2.6573104,0.0045636187,0.00050284591,3.3368087e-20,0.0061115032,-2.2598156e-22,0.0053375654
2.6696528,0.0045203323,0.00060978342,6.314018e-21,0.0059918761,3.6202478e-22,0.005256107
2.6816039,0.0044828377,0.00071339412,7.0495567e-21,0.0058820057,3.0467341e-22,0.0051824212
2.6931762,0.0044511552,0.00081379711,-8.9433156e-21,0.0057818458,7.6113759e-22,0.0051165
2.7043818,0.0044253152,0.00091109319,-8.3809708e-20,0.0056913403,-1.4876971e-21,0.0050583289
2.7152323,0.0044053426,0.0010053811,5.7951949e-22,0.0056104171,-2.5935947e-21,0.005007883
2.7257392,0.0043912569,0.0010967684,1.642178e-19,0.0055389841,2.1992494e-21,0.0049651218
2.7359133,0.0043830454,0.0011853475,5.1383828e-20,0.0054769237,3.1913754e-21,0.0049299838
2.7457652,0.0043806727,0.0012712066,-6.2297171e-20,0.0054240891,2.9153495e-22,0.0049023822
2.7553053,0.0043840968,0.0013544041,-5.9146593e-20,0.0053803005,-1.8946359e-21,0.0048822004
2.7645435,0.0043933466,0.001435021,2.2298197e-20,0.0053454674,-9.3897764e-22,0.0048694077
2.7734893,0.0044082452,0.0015131217,4.5270604e-20,0.0053192681,5.8053542e-24,0.0048637592
2.782152,0.0044284629,0.001588739,7.0659686e-20,0.0053011875,1.4714688e-21,0.0048648273
2.7905408,0.0044538458,0.0016619331,6.3156818e-21,0.0052909293,1.8047187e-21,0.0048723883
2.7986642,0.0044842091,0.0017327341,-6.3839e-20,0.0052881701,3.7725148e-22,0.0048861916
2.8065307,0.0045192752,0.0018011643,-8.9510489e-20,0.005292471,-2.5632439e-21,0.0049058743
2.8141485,0.0045587135,0.001867229,3.6239424e-20,0.005303351,-8.5842952e-22,0.0049310333
2.8215254,0.0046021615,0.0019309438,1.285126e-20,0.0053202926,1.6136072e-21,0.0049612282
2.8286692,0.0046492232,0.0019923144,-6.1988412e-20,0.0053427477,-1.0876165e-21,0.0049959861
2.8355872,0.0046994703,0.0020513244,3.0700114e-20,0.0053701431,-6.5219585e-22,0.0050348074
2.8422866,0.0047524558,0.0021079757,1.2247575e-20,0.0054018878,5.1403098e-22,0.0050771717
2.8487743,0.0048077103,0.0021622409,3.2357628e-21,0.0054373795,-3.2294212e-22,0.0051225448
2.8550571,0.0048647596,0.002214104,3.2709211e-20,0.0054760115,1.518001e-22,0.0051703852
2.8611414,0.0049231223,0.0022635735,1.7939316e-20,0.0055171809,1.5184231e-21,0.0052201512
2.8670335,0.0049823184,0.0023106151,-4.6711839e-20,0.005560295,-1.9742552e-22,0.0052713073
2.8727395,0.0050418825,0.0023551936,-4.6179357e-21,0.0056047754,-8.3312649e-22,0.0053233299
2.8782654,0.0051013592,0.0023973049,1.7579535e-21,0.0056500656,-3.1596202e-22,0.0053757132
2.8836168,0.0051603109,0.0024369394,1.4863252e-20,0.0056956352,3.9256579e-22,0.0054279738
2.8887992,0.0052183249,0.0024740821,-1.1828766e-20,0.0057409834,3.5683644e-22,0.0054796549
2.893818,0.0052750153,0.0025087253,-1.0640573e-20,0.0057856423,-1.0875394e-21,0.0055303294
2.8986784,0.0053300268,0.0025408652,3.9864049e-20,0.0058291795,-4.6892049e-22,0.0055796038
2.9033854,0.0053830373,0.0025705031,3.4666345e-20,0.0058712,1.6174128e-21,0.0056271191
2.9079439,0.0054337597,0.0025976486,-2.9672595e-20,0.0059113477,1.4406806e-21,0.005672554
2.9123585,0.0054819442,0.0026223186,-5.3573619e-20,0.0059493059,-1.9256391e-21,0.0057156254
2.9166338,0.0055273799,0.0026445373,4.3574567e-20,0.0059847984,-3.982354e-22,0.0057560894
2.9207742,0.0055698947,0.0026643417,-1.0332818e-20,0.0060175888,6.5790876e-22,0.0057937419
2.924784,0.0056093554,0.0026817832,3.831092e-21,0.0060474817,-5.8864913e-22,0.0058284188
2.9286673,0.0056456635,0.0026969243,1.7277679e-20,0.0060743171,1.0102e-21,0.0058599903
2.9324281,0.0056787516,0.0027098411,-3.492662e-20,0.0060979704,1.4521672e-22,0.0058883609
2.9360703,0.0057085857,0.0027206275,-2.5394231e-21,0.0061183558,-1.1003425e-21,0.0059134707
2.9395976,0.0057351596,0.0027293867,1.4895924e-20,0.0061354215,3.0333598e-22,0.0059352904
2.9430137,0.0057584899,0.0027362325,-1.1212889e-20,0.0061491468,7.4766752e-22,0.0059538183
2.946322,0.0057786131,0.0027412856,-2.1542188e-20,0.0061595385,-6.5382624e-22,0.0059690756
2.949526,0.00579558,0.0027446696,1.070294e-20,0.0061666269,-6.429662e-22,0.0059811032
2.952629,0.0058094525,0.0027465111,1.0287399e-20,0.0061704618,5.9704372e-23,0.0059899569
2.9556341,0.0058202865,0.0027469276,1.0147528e-20,0.0061710943,1.8130952e-22,0.0059956901
2.9585445,0.0058281595,0.0027460342,4.8062746e-21,0.0061686033,5.8035424e-22,0.005998381
2.9613632,0.0058331686,0.0027439462,-1.1508464e-20,0.0061630947,1.4257587e-23,0.0059981312
2.964093,0.0058353834,0.0027407616,6.6625119e-22,0.0061546501,-7.5583583e-22,0.0059950163
2.9667367,0.0058348642,0.002736566,1.7222778e-20,0.006143345,3.869145e-22,0.005989104
2.9692971,0.0058316739,0.0027314394,-9.3735337e-21,0.0061292614,5.0536462e-22,0.005980467
2.9717768,0.0058258681,0.0027254496,-4.3520248e-21,0.006112476,-3.9046911e-22,0.0059691714
2.9741784,0.0058174919,0.0027186481,4.0988644e-21,0.0060930573,-3.7024165e-22,0.0059552739
2.9765042,0.0058065784,0.0027110776,8.9840017e-21,0.0060710635,2.2479663e-22,0.0059388202
2.9787568,0.0057931472,0.0027027667,-1.615563e-21,0.0060465399,7.9807425e-22,0.0059198428
2.9809383,0.0057772025,0.0026937276,-1.7868833e-20,0.0060195175,-1.6522788e-22,0.0058983592
2.9830511,0.0057587316,0.0026839594,3.7818181e-22,0.0059900102,-4.4989093e-22,0.0058743701
2.9850974,0.0057377023,0.0026734461,-1.7800628e-21,0.0059580135,-8.6783564e-23,0.005847857
2.9870791,0.0057140621,0.0026621547,2.4682855e-21,0.0059235015,-4.5016219e-23,0.005818781
2.9889984,0.0056877358,0.0026500345,4.2563417e-22,0.0058864249,-9.1681906e-24,0.0057870794
2.9908573,0.0056586228,0.0026370208,2.4483141e-21,0.0058467089,-3.8819681e-23,0.0057526649
2.9926575,0.0056265958,0.0026230287,1.5237991e-21,0.0058042503,3.3466095e-22,0.005715422
2.9944011,0.0055914977,0.0026079504,-6.3952908e-21,0.005758915,-7.426291e-24,0.0056752054
2.9960897,0.0055531399,0.002591661,7.665672e-22,0.0057105356,-2.614206e-22,0.0056318368
2.9977251,0.0055112988,0.0025740156,1.2351537e-21,0.005658908,-2.1235887e-22,0.0055851025
2.999309,0.0054657137,0.0025548421,5.5359251e-21,0.0056037902,7.7182533e-23,0.005534751
3.000843,0.0054160842,0.0025339444,-1.5000426e-22,0.0055449023,6.7862516e-22,0.0054804899
3.0023287,0.0053620675,0.0025111038,-9.9408396e-21,0.005481913,-2.1873686e-22,0.0054219838
3.0037676,0.0053032718,0.0024869365,3.3945693e-21,0.0054144298,-4.4876472e-22,0.0053588523
3.0051611,0.005239282,0.0024589136,1.2855455e-21,0.0053418638,1.9430227e-22,0.0052905826
3.0065108,0.0051694608,0.0024252109,-1.0733735e-21,0.0052635085,-2.4713506e-23,0.005216486
3.0078179,0.0050929077,0.0023877567,1.39125e-21,0.0051786706,6.8100199e-23,0.0051357836
3.0090839,0.0050087215,0.0023468437,-1.6411361e-21,0.0050866,-1.3998253e-23,0.0050476576
3.01031,0.0049160389,0.0023020804,1.1005676e-21,0.0049864876,-1.6087178e-22,0.004951262
3.0114975,0.0048139926,0.0022530538,1.213207e-21,0.0048774656,-6.3024383e-23,0.0048457283
3.0126476,0.0047017088,0.0021993547,1.7228117e-21,0.0047586454,8.154116e-23,0.0047301764
3.0137614,0.0045783201,0.0021405874,-3.6631889e-23,0.0046291446,1.3428548e-22,0.0046037317
3.0148402,0.0044429871,0.0020763583,-4.5683823e-22,0.0044881097,-7.3686985e-23,0.0044655478
3.015885,0.0042949272,0.0020063003,8.1608185e-22,0.0043347461,8.8115122e-23,0.0043148361
3.0168969,0.004133454,0.0019300921,-1.2077583e-21,0.0041683579,8.6052571e-23,0.0041509054
3.017877,0.0039580242,0.0018474797,-4.1946825e-22,0.003988395,-1.7136183e-22,0.003973209
3.0188261,0.003768296,0.0017583033,7.8326487e-22,0.0037945102,-7.972524e-23,0.0037814027
3.0197454,0.0035641946,0.0016625278,4.7372617e-22,0.0035866247,9.9039146e-23,0.0035754101
3.0206357,0.0033459803,0.001560274,-2.7721318e-22,0.0033649999,9.4038629e-23,0.0033554904
3.021498,0.00311428,0.0014518291,-4.2735539e-22,0.0031302715,-2.816642e-23,0.0031222737
3.0223332,0.0028698739,0.0013312559,1.8995706e-24,0.002883159,-4.3638482e-23,0.0028765141
3.023142,0.0026140211,0.0011972851,1.5998573e-23,0.0026248871,2.3615826e-23,0.0026194539
3.0239254,0.0023492185,0.0010564859,-1.3016009e-22,0.0023579697,1.0515408e-24,0.0023535945
3.0246841,0.0020792762,0.00091201595,-1.2358995e-24,0.0020861903,-3.9901562e-23,0.0020827331
3.0254189,0.0018090893,0.00076729543,1.1984089e-22,0.0018144262,2.1494702e-24,0.0018117575
3.0261306,0.001544398,0.00062667169,-6.629766e-24,0.001548406,3.3202542e-23,0.0015464018
3.0268199,0.0012913582,0.00049491281,-6.8916752e-23,0.0012942736,-2.3766469e-25,0.0012928158
3.0274874,0.001055922,0.00037651914,-4.2461137e-24,0.001057966,-1.4072883e-23,0.001056944
3.028134,0.00084314254,0.00027497408,1.6299711e-23,0.00084451736,-7.2514909e-25,0.00084382991
3.0287602,0.00065657891,0.00019214426,-7.2571474e-25,0.00065746187,-5.9210126e-25,0.00065702037
3.0293667,0.00049796285,0.00012807554,8.0374319e-24,0.00049850185,1.448658e-24,0.00049823234
3.029954,0.00036719573,8.1176411e-05,-3.5093453e-24,0.000367507,1.2351866e-24,0.00036735136
3.0305229,0.00026263884,4.8737389e-05,-8.9671034e-27,0.00026280801,-7.2457778e-25,0.00026272342
3.0310739,0.00018157801,2.7575271e-05,3.3182293e-25,0.00018166396,1.2984561e-25,0.00018162098
3.0316075,0.00012071542,1.4593738e-05,-2.1479547e-25,0.00012075588,-3.1514236e-27,0.00012073564
3.0321244,7.6584488e-05,7.1453884e-06,8.6862807e-26,7.6601908e-05,-5.2614052e-26,7.6593196e-05
3.0326249,4.5844781e-05,3.1840428e-06,1.4666393e-26,4.5851512e-05,3.2922889e-27,4.5848146e-05
3.0331097,2.5458695e-05,1.2597698e-06,8.5880232e-27,2.5460965e-05,-2.1653325e-28,2.545983e-05
3.0335792,1.2776016e-05,4.2603614e-07,1.2357956e-27,1.2776656e-05,2.4775483e-28,1.2776336e-05
3.034034,5.5582695e-06,1.159774e-07,4.2713881e-28,5.5584102e-06,3.2596505e-28,5.5583398e-06
3.0344744,1.9734834e-06,2.3127285e-08,-5.4039862e-29,1.973505e-06,8.6385528e-29,1.9734942e-06
3.034901,6.0856435e-07,3.0994502e-09,-3.0145497e-30,6.0856634e-07,-2.4698048e-30,6.0856536e-07
3.0353141,8.7833e-07,5.9150871e-10,-2.1608864e-31,8.7833018e-07,-3.6179563e-31,8.7833007e-07
3.0357143,6.6666667e-11,0,0,6.6666667e-11,0,6.6666667e-11
