y,k
0.4481146,1e-10
0.44853879,1.5702517e-07
0.44897681,3.93576e-07
0.44942906,1.5740977e-06
0.44989599,4.5504282e-06
0.4503781,1.0550917e-05
0.45087586,2.1137558e-05
0.4513898,3.8235688e-05
0.45192042,6.4175362e-05
0.45246829,0.00010173518
0.45303395,0.00015418165
0.45361798,0.00022529476
0.45422098,0.00031936464
0.45484357,0.00044113774
0.45548638,0.000595684
0.45615006,0.0007881511
0.45683531,0.001023379
0.4575428,0.00130537
0.45827328,0.0016366592
0.45902747,0.002017701
0.45980616,0.0024464439
0.46061014,0.0029182729
0.46144023,0.0034264082
0.46229727,0.0039626917
0.46318214,0.0045185529
0.46409575,0.0050858948
0.46503902,0.0056577207
0.46601292,0.0062284397
0.46701845,0.0067938988
0.46805662,0.0073512368
0.46912849,0.007898656
0.47023517,0.0084351779
0.47137778,0.0089604235
0.47255748,0.0094744325
0.47377548,0.0099775245
0.47503301,0.010470196
0.47633137,0.010953048
0.47767188,0.011426732
0.47905589,0.011891921
0.48048483,0.012349283
0.48196014,0.012799466
0.48348334,0.013243096
0.48505597,0.013680764
0.48667964,0.014113029
0.48835599,0.014540419
0.49008674,0.014963427
0.49187366,0.015382517
0.49371855,0.015798123
0.4956233,0.016210651
0.49758984,0.016620484
0.49962018,0.01702798
0.50171638,0.017433478
0.50388058,0.017837294
0.50611498,0.018239729
0.50842185,0.018641066
0.51080353,0.019041572
0.51326245,0.019441504
0.51580111,0.019841103
0.51842208,0.020240597
0.52112804,0.020640206
0.52392172,0.021040138
0.52680597,0.021440592
0.52978371,0.021841757
0.53285797,0.022243816
0.53603187,0.022646939
0.53930862,0.023051292
0.54269156,0.023457032
0.54618412,0.023864306
0.54978982,0.024273257
0.55351233,0.024684015
0.55735543,0.025096707
0.561323,0.025511448
0.56541906,0.025928345
0.56964776,0.026347495
0.57177618,0.026552976
0.57401366,0.026768991
0.57852116,0.02719291
0.58317458,0.027619311
0.5879786,0.028048248
0.5929381,0.028479754
0.59805807,0.028913852
0.60334368,0.029350546
0.60880029,0.02978982
0.61443337,0.030231689
0.62024863,0.030676831
0.62625192,0.03112791
0.63244929,0.031589086
0.63884698,0.032063283
0.64545143,0.032551288
0.65226929,0.033053058
0.65930742,0.033568444
0.66657289,0.034097191
0.67407299,0.034638919
0.68181526,0.035193128
0.68980747,0.035759194
0.69805763,0.036336351
0.70657401,0.036923672
0.71536515,0.037520058
0.72443983,0.038124221
0.73380715,0.038734665
0.74347646,0.03934967
0.75345743,0.039967283
0.76376001,0.040585301
0.77439449,0.041201263
0.78537146,0.041812443
0.79670186,0.042415847
0.80839697,0.04300821
0.8204684,0.043586001
0.83292817,0.044145429
0.84578863,0.04468246
0.85906255,0.045192825
0.87276307,0.045672045
0.88690376,0.046115456
0.9014986,0.04651823
0.91656202,0.046875411
0.93210888,0.047181947
0.94815452,0.047432704
0.96471474,0.047622016
0.98180582,0.047743117
0.99944458,0.047792613
1.0176483,0.047768581
1.0364349,0.047665418
1.0558227,0.047477841
1.0758308,0.047202713
1.0964785,0.046836348
1.1177862,0.046375668
1.1397745,0.045819774
1.1624649,0.045168337
1.1858794,0.044422264
1.2100408,0.043583918
1.2349723,0.042657269
1.2606983,0.041648004
1.2872435,0.040563579
1.3146335,0.039413175
1.3209788,0.039142587
1.3428965,0.038207277
1.3720585,0.036958247
1.4021469,0.035679146
1.4331904,0.034383323
1.4652188,0.033083891
1.4982627,0.031793042
1.5323536,0.030521351
1.567524,0.02927714
1.6038071,0.028065987
1.6412376,0.026890467
1.6798508,0.025750277
1.7196831,0.024642585
1.7607723,0.023570633
1.8018234,0.022553149
1.8415466,0.02160644
1.8799862,0.020729599
1.9171847,0.019915834
1.9531836,0.019160489
1.9880224,0.018461349
2.0217396,0.017817514
2.0543721,0.017224303
2.0859558,0.016670451
2.116525,0.016145153
2.13776,0.015784862
2.1461135,0.015643113
2.1747538,0.015161906
2.2024761,0.014699874
2.2293103,0.014255822
2.2552856,0.013828887
2.2804299,0.013418426
2.3047701,0.013023915
2.3283326,0.012644895
2.3511425,0.012280991
2.3732242,0.011931889
2.3946014,0.011597273
2.4152968,0.011276825
2.4353325,0.010970239
2.4547298,0.010677222
2.4735093,0.010397499
2.4916909,0.010130813
2.509294,0.0098769248
2.526337,0.0096356201
2.542838,0.0094067066
2.5588145,0.0091900163
2.5742833,0.0089854064
2.5892607,0.0087927583
2.6037624,0.0086119772
2.6178038,0.0084429904
2.6313994,0.0082857449
2.6445637,0.008140205
2.6573104,0.0080063481
2.6696528,0.0078841604
2.6816039,0.0077736318
2.6931762,0.0076747499
2.7043818,0.0075874933
2.7152323,0.0075118246
2.7257392,0.0074476826
2.7359133,0.0073949756
2.7457652,0.0073535733
2.7553053,0.0073233007
2.7645435,0.0073041116
2.7734893,0.0072956388
2.782152,0.0072972409
2.7905408,0.0073085824
2.7986642,0.0073292873
2.8065307,0.0073588114
2.8141485,0.0073965499
2.8215254,0.0074418422
2.8286692,0.0074939791
2.8355872,0.0075522111
2.8422866,0.0076157576
2.8487743,0.0076838171
2.8550571,0.0077555778
2.8611414,0.0078302268
2.8670335,0.0079069609
2.8727395,0.0079849948
2.8782654,0.0080635698
2.8836168,0.0081419607
2.8887992,0.0082194823
2.893818,0.0082954942
2.8986784,0.0083694056
2.9033854,0.0084406787
2.9079439,0.008508831
2.9123585,0.0085734381
2.9166338,0.0086341341
2.9207742,0.0086906128
2.924784,0.0087426281
2.9286673,0.0087899855
2.9324281,0.0088325414
2.9360703,0.008870206
2.9395976,0.0089029356
2.9430137,0.0089307274
2.946322,0.0089536135
2.949526,0.0089716549
2.952629,0.0089849353
2.9556341,0.0089935351
2.9585445,0.0089975715
2.9613632,0.0089971968
2.964093,0.0089925245
2.9667367,0.008983656
2.9692971,0.0089707006
2.9717768,0.0089537572
2.9741784,0.0089329109
2.9765042,0.0089082303
2.9787568,0.0088797642
2.9809383,0.0088475388
2.9830511,0.0088115551
2.9850974,0.0087717856
2.9870791,0.0087281714
2.9889984,0.0086806192
2.9908573,0.0086289974
2.9926575,0.0085731331
2.9944011,0.0085128081
2.9960897,0.0084477552
2.9977251,0.0083776538
2.999309,0.0083021265
3.000843,0.0082207348
3.0023287,0.0081329757
3.0037676,0.0080382784
3.0051611,0.0079358739
3.0065108,0.007824729
3.0078179,0.0077036754
3.0090839,0.0075714864
3.01031,0.007426893
3.0114975,0.0072685924
3.0126476,0.0070952646
3.0137614,0.0069055976
3.0148402,0.0066983216
3.015885,0.0064722541
3.0168969,0.0062263581
3.017877,0.0059598136
3.0188261,0.0056721041
3.0197454,0.0053631152
3.0206357,0.0050332356
3.021498,0.0046834106
3.0223332,0.0043147711
3.023142,0.0039291809
3.0239254,0.0035303917
3.0246841,0.0031240996
3.0254189,0.0027176363
3.0261306,0.0023196027
3.0268199,0.0019392237
3.0274874,0.0015854159
3.028134,0.0012657449
3.0287602,0.00098553055
3.0293667,0.00074734851
3.029954,0.00055102704
3.0305229,0.00039408513
3.0310739,0.00027243147
3.0316075,0.00018110346
3.0321244,0.00011488979
3.0326249,6.8772219e-05
3.0331097,3.8189745e-05
3.0335792,1.9164504e-05
3.034034,8.3375097e-06
3.0344744,2.9602413e-06
3.034901,9.1284804e-07
3.0353141,1.3174951e-06
3.0357143,1e-10
