/*--------------------------------*- C++ -*----------------------------------*\
| =========                 |                                                 |
| \\      /  F ield         | OpenFOAM: The Open Source CFD Toolbox           |
|  \\    /   O peration     | Version:  2.4.0                                 |
|   \\  /    A nd           | Web:      www.OpenFOAM.org                      |
|    \\/     M anipulation  |                                                 |
\*---------------------------------------------------------------------------*/
FoamFile
{
    version     2.0;
    format      ascii;
    class       volScalarField;
    location    "1000";
    object      k;
}
// * * * * * * * * * * * * * * * * * * * * * * * * * * * * * * * * * * * * * //

dimensions      [0 2 -2 0 0 0 0];

internalField   nonuniform List<scalar> 
313200
(
2.6499294e-11
2.6890517e-11
2.6076255e-11
2.665439e-11
2.5200358e-11
2.4979616e-11
2.3069079e-11
2.1876423e-11
1.949142e-11
1.7535139e-11
1.4960765e-11
1.290971e-11
1.0848379e-11
1.0214268e-11
9.2875684e-12
9.4150047e-12
1.0262231e-11
8.2268221e-12
7.4570368e-12
7.2979152e-12
7.2920648e-12
7.3673824e-12
7.3865542e-12
7.3616299e-12
7.3705087e-12
7.2902045e-12
7.2199457e-12
7.2314722e-12
7.2672976e-12
7.3214413e-12
7.3845702e-12
7.3789905e-12
7.3593078e-12
7.3312065e-12
7.3005222e-12
7.2682192e-12
7.2337525e-12
7.1974767e-12
7.1587386e-12
7.1146569e-12
7.0692515e-12
7.0201861e-12
6.9711638e-12
6.9176917e-12
6.8678261e-12
6.8169422e-12
6.7713752e-12
6.7283387e-12
6.6898573e-12
6.6549071e-12
6.6245801e-12
6.6006501e-12
6.5874568e-12
6.5848186e-12
6.5212504e-12
6.3177388e-12
6.3162069e-12
6.3159379e-12
6.3158806e-12
6.3160228e-12
6.3160686e-12
6.3161056e-12
6.3161831e-12
6.3162308e-12
6.3163229e-12
6.3163014e-12
6.3141515e-12
6.5909003e-12
6.6598942e-12
6.6817357e-12
6.6627505e-12
6.32007e-12
6.3171163e-12
6.316211e-12
6.3162184e-12
6.3161819e-12
6.3161151e-12
6.3160389e-12
6.3159657e-12
6.3159094e-12
6.3158701e-12
6.315854e-12
6.3158543e-12
6.3158686e-12
6.3158942e-12
6.3159292e-12
6.3159712e-12
6.3160173e-12
6.316066e-12
6.3161167e-12
6.316168e-12
6.3162203e-12
6.3162734e-12
6.3163296e-12
6.3163902e-12
6.3159759e-12
6.3849514e-12
6.3165495e-12
6.3833438e-12
6.3921241e-12
6.3952375e-12
6.3991966e-12
6.4046646e-12
6.4117275e-12
6.4205743e-12
6.4314114e-12
6.4446072e-12
6.4607204e-12
6.480621e-12
6.5060195e-12
6.5342699e-12
6.556236e-12
6.5584597e-12
6.3580387e-12
6.3881068e-12
6.4282648e-12
6.4825016e-12
6.5552417e-12
6.6504102e-12
6.7706331e-12
6.91797e-12
7.0924345e-12
7.2958399e-12
7.526903e-12
7.7995489e-12
8.0937748e-12
8.3111653e-12
8.4304705e-12
8.4675148e-12
8.4203744e-12
8.2987009e-12
8.1203223e-12
7.9034847e-12
7.6686274e-12
7.435906e-12
7.221229e-12
7.0350663e-12
6.8821431e-12
6.7625807e-12
6.6733908e-12
6.6099137e-12
6.5668787e-12
6.539051e-12
6.5216469e-12
6.5107934e-12
6.5033374e-12
6.4967357e-12
6.4897763e-12
6.4822462e-12
6.4745518e-12
6.4673644e-12
6.4613615e-12
6.4570903e-12
6.4549151e-12
6.4550281e-12
6.4574979e-12
6.4623167e-12
6.4694384e-12
6.4788062e-12
6.4903834e-12
6.5041778e-12
6.5202517e-12
6.5387208e-12
6.5597736e-12
6.5836718e-12
6.6107506e-12
6.6414006e-12
6.6761132e-12
6.7154484e-12
6.7600084e-12
6.8105408e-12
6.8678062e-12
6.9326842e-12
7.0059614e-12
7.0887418e-12
7.1819116e-12
7.2866598e-12
7.4038521e-12
7.5348753e-12
7.6805417e-12
7.8423686e-12
8.0209833e-12
8.2176262e-12
8.4328437e-12
8.6679263e-12
8.922757e-12
9.1989807e-12
9.4964056e-12
9.8162437e-12
1.0157655e-11
1.0522611e-11
1.0909273e-11
1.1319952e-11
1.1752233e-11
1.2209609e-11
1.2688655e-11
1.3193255e-11
1.3719826e-11
1.4272629e-11
1.4847742e-11
1.5447989e-11
1.6070293e-11
1.6718166e-11
1.7387962e-11
1.8082135e-11
1.8797196e-11
1.9535188e-11
2.0294257e-11
2.1073472e-11
2.1872638e-11
2.2691173e-11
2.3529697e-11
2.438439e-11
2.5258301e-11
2.6147217e-11
2.7054156e-11
2.7976475e-11
2.8915126e-11
2.9863992e-11
3.0825797e-11
3.1800486e-11
3.2785784e-11
3.3779549e-11
3.4784098e-11
3.5796158e-11
3.681159e-11
3.7834092e-11
3.8862923e-11
3.9890329e-11
4.0920188e-11
4.1954314e-11
4.2983677e-11
4.4011248e-11
4.5040136e-11
4.606105e-11
4.7075723e-11
4.8088841e-11
4.9091445e-11
5.0083606e-11
5.1067717e-11
5.2039807e-11
5.2998853e-11
5.3943797e-11
5.4874424e-11
5.5789023e-11
5.6686273e-11
5.7562798e-11
5.8417643e-11
5.9249176e-11
6.00572e-11
6.0839593e-11
6.1595275e-11
6.2321742e-11
6.3020982e-11
6.3692012e-11
6.4336878e-11
6.4956583e-11
6.5556935e-11
6.6143497e-11
6.6723491e-11
6.730254e-11
6.7887714e-11
6.8481785e-11
6.9087376e-11
6.969941e-11
7.0311505e-11
7.0920314e-11
7.1524195e-11
7.212584e-11
7.2724087e-11
7.332036e-11
7.3912988e-11
7.4502696e-11
7.5091712e-11
7.5683384e-11
7.6278241e-11
7.6873397e-11
7.7467e-11
7.805854e-11
7.8647735e-11
7.9233319e-11
7.9812631e-11
8.0385991e-11
8.0959832e-11
8.1530011e-11
8.2098355e-11
8.2661228e-11
8.3217086e-11
8.3769045e-11
8.4313472e-11
8.4849137e-11
8.5367224e-11
8.5884978e-11
8.6378917e-11
8.6854259e-11
8.7320335e-11
8.7757101e-11
8.8150162e-11
8.8581766e-11
8.8917439e-11
8.9225426e-11
8.9561082e-11
8.974298e-11
8.9959015e-11
9.0221308e-11
9.0201596e-11
9.0181614e-11
9.0232486e-11
9.0077892e-11
8.9759939e-11
8.9255226e-11
8.8563702e-11
8.7731852e-11
8.6771424e-11
8.5609106e-11
8.4230894e-11
8.2612032e-11
8.0805798e-11
7.8842451e-11
7.6693548e-11
7.4326196e-11
7.176977e-11
6.9109293e-11
6.6377628e-11
6.3595502e-11
6.0712744e-11
5.7763353e-11
5.4766891e-11
5.1799906e-11
4.8855189e-11
4.593848e-11
4.3032308e-11
4.0181042e-11
3.7412667e-11
3.4759865e-11
3.2215326e-11
2.9778661e-11
2.7453794e-11
2.5261771e-11
2.3219289e-11
2.1324841e-11
1.957407e-11
1.7957386e-11
1.6480487e-11
1.5139183e-11
1.3936433e-11
1.2859413e-11
1.1901813e-11
1.105325e-11
1.0312479e-11
9.6744759e-12
9.1364806e-12
8.6930644e-12
8.3408338e-12
8.0758635e-12
7.8952002e-12
7.794636e-12
7.769614e-12
7.8160606e-12
7.9293147e-12
8.1058595e-12
8.3443858e-12
8.6448723e-12
9.0028002e-12
9.4187169e-12
9.8834537e-12
1.0377509e-11
1.0888594e-11
1.1390843e-11
1.1862165e-11
1.2294629e-11
1.266216e-11
1.2968675e-11
1.3218219e-11
1.3408328e-11
1.3541009e-11
1.3618828e-11
1.3650475e-11
1.3637171e-11
1.3585319e-11
1.3495798e-11
1.3376749e-11
1.3230623e-11
1.3064644e-11
1.2880585e-11
1.2684315e-11
1.2476644e-11
1.2263041e-11
1.2043092e-11
1.1822073e-11
1.1598714e-11
1.1378353e-11
1.1159164e-11
1.0946445e-11
1.0739741e-11
1.0542765e-11
1.0354539e-11
1.0178989e-11
1.0016802e-11
9.8705554e-12
9.7405479e-12
9.6285038e-12
9.534828e-12
9.4594083e-12
9.4021385e-12
9.36096e-12
9.3350682e-12
9.3197314e-12
9.3136631e-12
9.3082319e-12
9.3022164e-12
9.278774e-12
9.2376137e-12
9.1394209e-12
9.0340316e-12
9.0613252e-12
9.1570437e-12
9.2302746e-12
9.2611584e-12
9.2330236e-12
9.1541865e-12
9.0321118e-12
8.8833155e-12
8.7208623e-12
8.5589757e-12
8.4053247e-12
8.2683749e-12
8.1484589e-12
8.047152e-12
7.9635617e-12
7.8974595e-12
7.8469373e-12
7.8101043e-12
7.7845577e-12
7.7673126e-12
7.7562165e-12
7.749623e-12
7.7421454e-12
7.7387458e-12
7.7311622e-12
7.7282951e-12
7.7188374e-12
7.7108025e-12
7.6896887e-12
7.6604117e-12
7.6244199e-12
7.6010414e-12
7.6316016e-12
7.722977e-12
7.8513158e-12
7.8724484e-12
7.750995e-12
7.504245e-12
6.8936965e-12
1.8715835e-11
1.7044318e-11
1.9285835e-11
2.5347544e-11
2.5456987e-11
2.5548384e-11
2.3215249e-11
2.0475144e-11
1.7400831e-11
3.3317147e-11
1.2020028e-11
2.3458351e-11
4.5967242e-11
3.3828908e-11
2.0835646e-11
1.9384823e-11
1.8756729e-11
2.1345449e-11
2.8116228e-11
1.0774188e-10
1.7304521e-09
2.2856519e-09
1.5389551e-09
5.9947422e-10
2.5933381e-10
1.3486701e-10
6.4093448e-11
5.1773131e-11
4.3032381e-11
3.5514753e-11
4.1376749e-11
4.5631707e-11
5.2727554e-11
6.3406168e-11
6.9411275e-11
7.4381255e-11
7.6318268e-11
8.2310797e-11
1.1302548e-10
1.2984001e-10
2.1268244e-10
1.5937646e-10
2.0412608e-10
2.0053812e-10
1.2553908e-10
1.3939872e-10
1.3911405e-10
1.327602e-10
1.4257299e-10
1.284355e-10
1.0768611e-10
9.0342915e-11
9.9786325e-11
6.7811086e-11
7.7221801e-11
8.1873715e-11
7.2869225e-11
6.6634488e-11
6.3855421e-11
6.602905e-11
7.0750912e-11
7.5800933e-11
8.1602439e-11
8.4783775e-11
9.051128e-11
9.0807815e-11
9.3077817e-11
9.8752253e-11
9.7592363e-11
9.2815024e-11
8.9726648e-11
8.2881596e-11
7.6922125e-11
6.9265901e-11
6.373527e-11
5.6678197e-11
5.2042156e-11
4.5940041e-11
4.2514812e-11
3.7677232e-11
3.5529336e-11
3.1790628e-11
3.0797798e-11
2.8109221e-11
2.7903463e-11
2.6483982e-11
6.4763484e-10
6.601652e-10
6.3406257e-10
6.525849e-10
6.0598052e-10
5.9890484e-10
5.3768207e-10
4.9947096e-10
4.2305776e-10
3.6038652e-10
2.7791213e-10
2.1220785e-10
1.4620708e-10
1.2590117e-10
9.612846e-11
1.0016893e-10
1.2732007e-10
6.20852e-11
3.7413057e-11
3.2311266e-11
3.2121047e-11
3.4532479e-11
3.5144501e-11
3.434353e-11
3.462598e-11
3.2050106e-11
2.979639e-11
3.0164126e-11
3.1310725e-11
3.3044571e-11
3.5066528e-11
3.4886402e-11
3.4254335e-11
3.3352562e-11
3.2367996e-11
3.1331577e-11
3.0225799e-11
2.906209e-11
2.7819447e-11
2.6405577e-11
2.4949268e-11
2.3375645e-11
2.1803397e-11
2.00885e-11
1.8489171e-11
1.6857416e-11
1.5396604e-11
1.4017316e-11
1.2784056e-11
1.1663974e-11
1.0692082e-11
9.9252084e-12
9.5024938e-12
9.4181976e-12
7.3589126e-12
8.3261998e-13
8.0557675e-13
8.0088806e-13
8.0004904e-13
8.0398881e-13
8.0460258e-13
8.0553419e-13
8.0753291e-13
8.0876122e-13
8.1116536e-13
8.1135131e-13
7.7354391e-13
9.6448352e-12
1.1826836e-11
1.2527059e-11
1.1884048e-11
8.8705096e-13
8.2699404e-13
8.1067754e-13
8.1074804e-13
8.0986784e-13
8.0831372e-13
8.0646228e-13
8.0456293e-13
8.0289577e-13
8.0147385e-13
8.0044808e-13
7.9970328e-13
7.9921085e-13
7.9893885e-13
7.9886527e-13
7.9894292e-13
7.9911671e-13
7.9935174e-13
7.9964085e-13
7.9996917e-13
8.0032542e-13
8.0071499e-13
8.0117233e-13
8.017041e-13
7.9429657e-13
2.998065e-12
8.0393503e-13
2.9506895e-12
3.225718e-12
3.3250872e-12
3.4515852e-12
3.6264414e-12
3.8524303e-12
4.1355877e-12
4.4825372e-12
4.9050971e-12
5.4211682e-12
6.0586342e-12
6.8723274e-12
7.7774311e-12
8.4811027e-12
8.5508139e-12
2.1249192e-12
3.0881342e-12
4.3747672e-12
6.1123869e-12
8.4431493e-12
1.149304e-11
1.5346355e-11
2.0069205e-11
2.5662037e-11
3.2182972e-11
3.9590933e-11
4.8333426e-11
5.7773367e-11
6.4747099e-11
6.8569731e-11
6.9755213e-11
6.8243013e-11
6.4342525e-11
5.8625135e-11
5.1675658e-11
4.4149086e-11
3.669129e-11
2.9811967e-11
2.3846546e-11
1.8946364e-11
1.5115247e-11
1.2257403e-11
1.0223487e-11
8.8445881e-12
7.9529619e-12
7.3953216e-12
7.0475563e-12
6.8086333e-12
6.597073e-12
6.3740449e-12
6.1327284e-12
5.8861587e-12
5.6558382e-12
5.4634883e-12
5.3266345e-12
5.2569519e-12
5.2606011e-12
5.3397803e-12
5.4942347e-12
5.7224886e-12
6.0227272e-12
6.3937671e-12
6.8358659e-12
7.351014e-12
7.9429319e-12
8.6176449e-12
9.3835535e-12
1.0251394e-11
1.1233687e-11
1.2346182e-11
1.3606824e-11
1.5034917e-11
1.6654408e-11
1.8489689e-11
2.0568933e-11
2.291736e-11
2.557035e-11
2.8556292e-11
3.1913304e-11
3.5669121e-11
3.9868192e-11
4.4536543e-11
4.9722802e-11
5.544707e-11
6.1749092e-11
6.8646387e-11
7.6180305e-11
8.4347109e-11
9.3199488e-11
1.0273132e-10
1.1298143e-10
1.2392291e-10
1.3561891e-10
1.4801055e-10
1.6117186e-10
1.7502545e-10
1.8968323e-10
2.0503552e-10
2.2120672e-10
2.3808201e-10
2.5579796e-10
2.7422893e-10
2.9346532e-10
3.1340859e-10
3.3417124e-10
3.5563648e-10
3.778829e-10
4.0079876e-10
4.2444947e-10
4.487756e-10
4.7374737e-10
4.9935848e-10
5.2559032e-10
5.5246275e-10
5.7985333e-10
6.0785977e-10
6.3634713e-10
6.65412e-10
6.9496979e-10
7.2505097e-10
7.5545946e-10
7.8628262e-10
8.1751876e-10
8.4909474e-10
8.8094207e-10
9.1313504e-10
9.4556876e-10
9.7811052e-10
1.0108787e-09
1.0438499e-09
1.0767753e-09
1.1097794e-09
1.1429201e-09
1.1759083e-09
1.208839e-09
1.2418119e-09
1.2745293e-09
1.3070468e-09
1.3395142e-09
1.3716449e-09
1.4034408e-09
1.4349787e-09
1.4661315e-09
1.4968661e-09
1.527149e-09
1.5569729e-09
1.5862833e-09
1.6150376e-09
1.6431278e-09
1.6705231e-09
1.6971716e-09
1.7230666e-09
1.7481401e-09
1.7723578e-09
1.795639e-09
1.8180478e-09
1.8395524e-09
1.8602187e-09
1.8800785e-09
1.8993178e-09
1.9181152e-09
1.9367019e-09
1.9552583e-09
1.9740109e-09
1.9930488e-09
2.0124559e-09
2.0320693e-09
2.0516849e-09
2.071195e-09
2.0905475e-09
2.1098279e-09
2.1289996e-09
2.148108e-09
2.1670997e-09
2.1859975e-09
2.2048734e-09
2.2238344e-09
2.2428976e-09
2.2619703e-09
2.2809935e-09
2.29995e-09
2.3188315e-09
2.3375971e-09
2.3561617e-09
2.3745358e-09
2.3929248e-09
2.4111971e-09
2.4294104e-09
2.4474485e-09
2.4652617e-09
2.4829502e-09
2.5003971e-09
2.5175633e-09
2.5341662e-09
2.5507581e-09
2.5665877e-09
2.5818208e-09
2.5967574e-09
2.6107542e-09
2.6233513e-09
2.6371826e-09
2.6479406e-09
2.6578105e-09
2.6685678e-09
2.6743978e-09
2.6813213e-09
2.6897281e-09
2.6890986e-09
2.6884599e-09
2.6900925e-09
2.685141e-09
2.6749546e-09
2.6587833e-09
2.6366249e-09
2.6099707e-09
2.5791965e-09
2.5419527e-09
2.497789e-09
2.4459134e-09
2.3880335e-09
2.3251193e-09
2.2562582e-09
2.1803946e-09
2.0984712e-09
2.0132134e-09
1.9256737e-09
1.836517e-09
1.7441346e-09
1.6496154e-09
1.5535882e-09
1.4585052e-09
1.3641357e-09
1.2706627e-09
1.1775269e-09
1.0861501e-09
9.9742968e-10
9.1241262e-10
8.3086496e-10
7.5277354e-10
6.7826495e-10
6.0801328e-10
5.4255409e-10
4.8183892e-10
4.25728e-10
3.7391436e-10
3.2658025e-10
2.8359189e-10
2.4504393e-10
2.1052546e-10
1.7983416e-10
1.5263725e-10
1.2889488e-10
1.0844606e-10
9.1202294e-11
7.6989631e-11
6.5699308e-11
5.7205499e-11
5.141361e-11
4.8188735e-11
4.7384794e-11
4.8871218e-11
5.2498627e-11
5.8154304e-11
6.5796317e-11
7.5424198e-11
8.689325e-11
1.0022121e-10
1.1511443e-10
1.3094782e-10
1.4732771e-10
1.6342495e-10
1.7853121e-10
1.9239234e-10
2.0417262e-10
2.1399746e-10
2.2199648e-10
2.2809071e-10
2.3234434e-10
2.3483984e-10
2.3585543e-10
2.3543036e-10
2.3376981e-10
2.3090185e-10
2.2708742e-10
2.2240514e-10
2.1708654e-10
2.111884e-10
2.0489886e-10
1.9824389e-10
1.9139871e-10
1.8435016e-10
1.7726717e-10
1.7010923e-10
1.630472e-10
1.560227e-10
1.4920551e-10
1.4258096e-10
1.362682e-10
1.3023573e-10
1.2460942e-10
1.1941133e-10
1.1472402e-10
1.1055717e-10
1.069659e-10
1.0396333e-10
1.0154579e-10
9.9709995e-11
9.838991e-11
9.7559803e-11
9.7068072e-11
9.6873491e-11
9.6699498e-11
9.6506946e-11
9.5756138e-11
9.4437888e-11
9.1290833e-11
8.7905011e-11
8.8770864e-11
9.1837786e-11
9.4185447e-11
9.5175304e-11
9.4272915e-11
9.1745137e-11
8.7831512e-11
8.3061575e-11
7.7854437e-11
7.2665827e-11
6.77415e-11
6.3352742e-11
5.9510107e-11
5.6264221e-11
5.3586392e-11
5.146911e-11
4.9851216e-11
4.8671961e-11
4.7854058e-11
4.7302072e-11
4.6946919e-11
4.6735493e-11
4.6496101e-11
4.6387185e-11
4.61444e-11
4.6052771e-11
4.5749096e-11
4.5489817e-11
4.4809552e-11
4.3868873e-11
4.2717548e-11
4.1981067e-11
4.2981874e-11
4.5927836e-11
5.0032082e-11
5.0670177e-11
4.6735158e-11
3.8765765e-11
1.9137533e-11
3.9814692e-10
3.4467374e-10
4.1658541e-10
6.1110541e-10
6.1500274e-10
6.1798085e-10
5.4289398e-10
4.5451332e-10
3.5494988e-10
8.6547773e-10
1.8350035e-10
5.4990552e-10
1.2718805e-09
8.8265748e-10
4.664182e-10
4.2002196e-10
3.9969496e-10
4.8228236e-10
6.9909048e-10
3.2507624e-09
5.5261802e-08
7.3059104e-08
4.9123793e-08
1.9012104e-08
8.1131697e-09
4.1225332e-09
1.8530855e-09
1.457459e-09
1.1763752e-09
9.3763994e-10
1.1252274e-09
1.2607296e-09
1.4878541e-09
1.8304391e-09
2.0245467e-09
2.1854254e-09
2.2496736e-09
2.4422725e-09
3.4200265e-09
3.9622084e-09
6.6225218e-09
4.9044793e-09
6.343323e-09
6.2267604e-09
3.8187512e-09
4.2648653e-09
4.2503648e-09
4.0500684e-09
4.3646575e-09
3.9137037e-09
3.2487326e-09
2.6908562e-09
2.9970506e-09
1.97048e-09
2.2679815e-09
2.4203783e-09
2.1335469e-09
1.9344959e-09
1.8454501e-09
1.9148566e-09
2.0661279e-09
2.2278987e-09
2.4140791e-09
2.5159194e-09
2.6995489e-09
2.7091465e-09
2.7809551e-09
2.962495e-09
2.9252032e-09
2.7720155e-09
2.6729431e-09
2.4535761e-09
2.2627677e-09
2.0175384e-09
1.8404164e-09
1.6143728e-09
1.4659077e-09
1.2704378e-09
1.1607361e-09
1.0057553e-09
9.3695952e-10
8.1716888e-10
7.8536769e-10
6.9921752e-10
6.9263126e-10
6.4714448e-10
4.5949522e-09
4.6838908e-09
4.4983303e-09
4.6298475e-09
4.2986431e-09
4.2483271e-09
3.8133484e-09
3.5419211e-09
2.9991421e-09
2.554025e-09
1.9682551e-09
1.501635e-09
1.0331468e-09
8.8854361e-10
6.747994e-10
6.6044497e-10
7.6116427e-10
3.6683615e-10
2.1812269e-10
1.8762593e-10
1.8708153e-10
2.0247695e-10
2.0723732e-10
2.0255716e-10
2.0326536e-10
1.8767202e-10
1.7441734e-10
1.7658955e-10
1.8329484e-10
1.9320732e-10
2.0460372e-10
2.0332547e-10
1.9947471e-10
1.9401976e-10
1.8808086e-10
1.8181917e-10
1.751367e-10
1.6810977e-10
1.6061623e-10
1.5210975e-10
1.4336138e-10
1.3391635e-10
1.24484e-10
1.1419752e-10
1.0460617e-10
9.4820142e-11
8.6059485e-11
7.7786345e-11
7.0388329e-11
6.366835e-11
5.7837143e-11
5.3236331e-11
5.0702493e-11
5.0200802e-11
3.7721226e-11
3.1397127e-13
2.171871e-13
2.0031121e-13
1.975382e-13
2.0393282e-13
2.0764876e-13
2.1179119e-13
2.180271e-13
2.2320461e-13
2.3113219e-13
2.3261002e-13
8.0767938e-14
5.2679453e-11
6.5309759e-11
6.9549989e-11
6.5728787e-11
5.0984266e-13
3.1083645e-13
2.5550169e-13
2.555683e-13
2.5153909e-13
2.4454354e-13
2.3623952e-13
2.2723944e-13
2.1872245e-13
2.1077523e-13
2.0413921e-13
1.985044e-13
1.938315e-13
1.9006039e-13
1.87112e-13
1.848823e-13
1.8324748e-13
1.8211777e-13
1.8142867e-13
1.8110752e-13
1.8110393e-13
1.8142918e-13
1.8220391e-13
1.8351474e-13
1.543067e-13
1.1723636e-11
1.8830971e-13
1.1467543e-11
1.3089826e-11
1.3691795e-11
1.4458866e-11
1.5518555e-11
1.6887607e-11
1.8602705e-11
2.0704194e-11
2.3264015e-11
2.6391826e-11
3.0261792e-11
3.520937e-11
4.0897828e-11
4.5795952e-11
4.7459324e-11
8.6855944e-12
1.5529199e-11
2.4670398e-11
3.7014501e-11
5.3573896e-11
7.5245171e-11
1.0262816e-10
1.3619344e-10
1.7594444e-10
2.2229409e-10
2.7495103e-10
3.3708971e-10
4.0414489e-10
4.5365219e-10
4.8079821e-10
4.8921461e-10
4.7846602e-10
4.5074911e-10
4.1012376e-10
3.6074638e-10
3.0727047e-10
2.5428446e-10
2.0540921e-10
1.6302744e-10
1.2821403e-10
1.0099599e-10
8.0692643e-11
6.6242911e-11
5.6446735e-11
5.0112365e-11
4.6150783e-11
4.3680081e-11
4.1982609e-11
4.0479521e-11
3.8894945e-11
3.7180409e-11
3.542852e-11
3.3792041e-11
3.2425299e-11
3.1452808e-11
3.0957526e-11
3.0983229e-11
3.1545539e-11
3.264265e-11
3.4264078e-11
3.6396929e-11
3.9032799e-11
4.2173511e-11
4.5833199e-11
5.0038297e-11
5.4831606e-11
6.0272802e-11
6.6438154e-11
7.3416628e-11
8.1320098e-11
9.0276063e-11
1.0042166e-10
1.1192697e-10
1.2496534e-10
1.3973692e-10
1.564209e-10
1.7526863e-10
1.9648181e-10
2.2033128e-10
2.4701409e-10
2.7684602e-10
3.1001202e-10
3.4685757e-10
3.8752548e-10
4.3229815e-10
4.8130005e-10
5.3482499e-10
5.9284638e-10
6.5573863e-10
7.2345825e-10
7.9628092e-10
8.7401568e-10
9.57111e-10
1.0451488e-09
1.1386546e-09
1.237079e-09
1.3412167e-09
1.4502886e-09
1.5651787e-09
1.6850712e-09
1.8109362e-09
1.9418813e-09
2.0785484e-09
2.2202379e-09
2.3677487e-09
2.520251e-09
2.6783034e-09
2.8411122e-09
3.0091412e-09
3.1819692e-09
3.3593846e-09
3.5413418e-09
3.7277087e-09
3.9186272e-09
4.1132277e-09
4.3122023e-09
4.514594e-09
4.7210893e-09
4.9310865e-09
5.1448009e-09
5.3608422e-09
5.5798304e-09
5.8017503e-09
6.0260855e-09
6.2523506e-09
6.4810692e-09
6.7114971e-09
6.9426967e-09
7.175503e-09
7.4097484e-09
7.6436736e-09
7.8781576e-09
8.1136073e-09
8.3479782e-09
8.5819411e-09
8.8161993e-09
9.0486459e-09
9.2796746e-09
9.5103419e-09
9.7386193e-09
9.9645216e-09
1.0188589e-08
1.0409919e-08
1.0628279e-08
1.0843431e-08
1.1055322e-08
1.1263565e-08
1.1467857e-08
1.1667433e-08
1.1862072e-08
1.2051404e-08
1.2235385e-08
1.2413528e-08
1.2585593e-08
1.2751002e-08
1.2910214e-08
1.3063001e-08
1.320983e-08
1.3350928e-08
1.3487611e-08
1.3621151e-08
1.3753189e-08
1.3885012e-08
1.4018227e-08
1.415347e-08
1.4291338e-08
1.4430673e-08
1.4570023e-08
1.4708624e-08
1.4846105e-08
1.4983074e-08
1.5119269e-08
1.5255014e-08
1.5389931e-08
1.552418e-08
1.5658276e-08
1.5792975e-08
1.59284e-08
1.6063893e-08
1.6199035e-08
1.6333704e-08
1.6467834e-08
1.6601137e-08
1.6733015e-08
1.6863543e-08
1.6994175e-08
1.7123979e-08
1.7253362e-08
1.7381505e-08
1.7508051e-08
1.763371e-08
1.7757651e-08
1.78796e-08
1.7997552e-08
1.8115423e-08
1.8227879e-08
1.8336095e-08
1.8442215e-08
1.8541658e-08
1.8631166e-08
1.8729417e-08
1.8805849e-08
1.887598e-08
1.8952426e-08
1.8993855e-08
1.9043042e-08
1.9102784e-08
1.9098352e-08
1.9093877e-08
1.9105531e-08
1.9070402e-08
1.8998084e-08
1.888328e-08
1.8725954e-08
1.8536686e-08
1.8318123e-08
1.8053614e-08
1.7739961e-08
1.7371548e-08
1.6960449e-08
1.6513565e-08
1.6024414e-08
1.5485529e-08
1.49036e-08
1.4297957e-08
1.367607e-08
1.3042665e-08
1.2386369e-08
1.1714896e-08
1.1032709e-08
1.0357184e-08
9.6867094e-09
9.0225956e-09
8.3608997e-09
7.7116903e-09
7.0813349e-09
6.4772587e-09
5.8978285e-09
5.3429576e-09
4.8135485e-09
4.3143745e-09
3.8492344e-09
3.4177925e-09
3.0190651e-09
2.650878e-09
2.3145168e-09
2.0090322e-09
1.7350909e-09
1.4897837e-09
1.2716703e-09
1.0783898e-09
9.096533e-10
7.6431841e-10
6.4175532e-10
5.4073017e-10
4.6046995e-10
4.0008064e-10
3.5888967e-10
3.3593838e-10
3.3018671e-10
3.4070787e-10
3.6644029e-10
4.0658229e-10
4.6083618e-10
5.2920021e-10
6.1064905e-10
7.0531238e-10
8.1110854e-10
9.2359599e-10
1.0399802e-09
1.1543685e-09
1.2617212e-09
1.3602318e-09
1.443959e-09
1.5137942e-09
1.5706574e-09
1.6139867e-09
1.6442376e-09
1.661996e-09
1.6692386e-09
1.6662436e-09
1.6544689e-09
1.6341119e-09
1.6070273e-09
1.5737755e-09
1.5360009e-09
1.4941078e-09
1.4494322e-09
1.4021593e-09
1.3535335e-09
1.3034621e-09
1.2531442e-09
1.2022933e-09
1.1521223e-09
1.1022172e-09
1.0537834e-09
1.0067176e-09
9.6186554e-10
9.190042e-10
8.7902728e-10
8.4209203e-10
8.0878454e-10
7.7917431e-10
7.5365306e-10
7.3231416e-10
7.1513171e-10
7.0208246e-10
6.9269776e-10
6.8679513e-10
6.8329783e-10
6.819128e-10
6.8067581e-10
6.793085e-10
6.7397763e-10
6.6461787e-10
6.4227317e-10
6.1825666e-10
6.2444014e-10
6.4623824e-10
6.6292591e-10
6.6996197e-10
6.6354754e-10
6.4557931e-10
6.1776059e-10
5.8385494e-10
5.4684423e-10
5.0996578e-10
4.7496705e-10
4.4377423e-10
4.1646343e-10
3.9339705e-10
3.7436983e-10
3.5932566e-10
3.4783174e-10
3.3945484e-10
3.3364253e-10
3.297202e-10
3.2719583e-10
3.2568925e-10
3.2398793e-10
3.232105e-10
3.2148526e-10
3.2083348e-10
3.1866954e-10
3.1681165e-10
3.1195136e-10
3.0524801e-10
2.9707922e-10
2.9192946e-10
2.9918206e-10
3.2022436e-10
3.4930747e-10
3.5355659e-10
3.252924e-10
2.6827654e-10
1.2827152e-10
2.4656584e-09
2.385349e-09
2.9375738e-09
4.3249558e-09
4.363731e-09
4.3882483e-09
3.8537393e-09
3.2223168e-09
2.5071753e-09
6.094511e-09
1.2946137e-09
3.6210039e-09
8.6848684e-09
6.2239006e-09
3.3017986e-09
2.9788728e-09
2.8345152e-09
3.4196332e-09
4.9574691e-09
2.1270097e-08
3.4217562e-07
4.8457387e-07
3.4152227e-07
1.3404251e-07
5.7495992e-08
2.9257538e-08
1.3154894e-08
1.0343768e-08
8.3415817e-09
6.6621889e-09
7.9928688e-09
8.9499881e-09
1.056261e-08
1.3000458e-08
1.4393719e-08
1.5548038e-08
1.6017579e-08
1.7385421e-08
2.4276101e-08
2.8156534e-08
4.7084516e-08
3.4839576e-08
4.5102781e-08
4.4250725e-08
2.7099607e-08
3.0267407e-08
3.0125274e-08
2.8740458e-08
3.0987941e-08
2.780301e-08
2.307532e-08
1.9094914e-08
2.1277226e-08
1.3978746e-08
1.6068328e-08
1.7176181e-08
1.5152306e-08
1.3742916e-08
1.3107978e-08
1.3597267e-08
1.4672422e-08
1.5822789e-08
1.7148019e-08
1.7869441e-08
1.9172009e-08
1.9242284e-08
1.9747042e-08
2.1033535e-08
2.0767135e-08
1.9679287e-08
1.897536e-08
1.7416723e-08
1.6062708e-08
1.4321841e-08
1.3064441e-08
1.1459468e-08
1.0405637e-08
9.0176274e-09
8.2388175e-09
7.1381931e-09
6.6497934e-09
5.7989415e-09
5.5731894e-09
4.9612589e-09
4.9145818e-09
4.5914586e-09
1.6760723e-08
1.7084863e-08
1.6407536e-08
1.6886913e-08
1.5678391e-08
1.5494717e-08
1.3907945e-08
1.2918035e-08
1.0938473e-08
9.3153413e-09
7.1792615e-09
5.4778793e-09
3.7705421e-09
3.2381536e-09
2.4381256e-09
2.2300911e-09
2.0898994e-09
9.9982356e-10
5.9236153e-10
5.1064896e-10
5.2196365e-10
5.7166588e-10
5.912113e-10
5.7876166e-10
5.6448841e-10
5.2076773e-10
4.9165514e-10
5.0133622e-10
5.189628e-10
5.4194039e-10
5.62265e-10
5.5542229e-10
5.4397478e-10
5.2855981e-10
5.1208157e-10
4.9470797e-10
4.7619649e-10
4.5678529e-10
4.3615273e-10
4.1286176e-10
3.8900043e-10
3.6329534e-10
3.3765596e-10
3.0970973e-10
2.8366621e-10
2.5709293e-10
2.3330613e-10
2.1083293e-10
1.9073214e-10
1.7246747e-10
1.5661544e-10
1.4411039e-10
1.3723755e-10
1.358947e-10
1.0173671e-10
3.6828346e-13
1.8881684e-13
1.5750551e-13
1.5341891e-13
1.6395668e-13
1.7083621e-13
1.807758e-13
1.9462215e-13
2.0720927e-13
2.2554028e-13
2.3336642e-13
4.6723405e-13
1.4781305e-10
1.8038314e-10
1.9211325e-10
1.8615694e-10
8.0528158e-13
4.1203626e-13
3.1644309e-13
3.1817822e-13
3.1038471e-13
2.9549478e-13
2.7689643e-13
2.5564954e-13
2.343545e-13
2.1328484e-13
1.9431288e-13
1.771105e-13
1.6183838e-13
1.4853055e-13
1.3716959e-13
1.276303e-13
1.19762e-13
1.1343231e-13
1.0853058e-13
1.0490292e-13
1.0241741e-13
1.0109295e-13
1.0114458e-13
1.0286403e-13
4.4448813e-14
3.136682e-11
1.1093407e-13
3.0719477e-11
3.5115311e-11
3.6789675e-11
3.8925614e-11
4.1873702e-11
4.5680835e-11
5.0449905e-11
5.6295098e-11
6.3419749e-11
7.2137542e-11
8.2965876e-11
9.6890635e-11
1.140205e-10
1.330903e-10
1.4599756e-10
3.0703576e-11
5.5667399e-11
8.9011211e-11
1.3403486e-10
1.9443961e-10
2.7350154e-10
3.7341273e-10
4.9589284e-10
6.4095584e-10
8.1010859e-10
1.00229e-09
1.2290593e-09
1.4736166e-09
1.654079e-09
1.7530806e-09
1.7837838e-09
1.7445804e-09
1.6434698e-09
1.4952629e-09
1.3151301e-09
1.1200466e-09
9.2675024e-10
7.4844944e-10
5.9383639e-10
4.6683245e-10
3.6753647e-10
2.934657e-10
2.4074962e-10
2.0501059e-10
1.819012e-10
1.6744869e-10
1.5843481e-10
1.5224215e-10
1.4675895e-10
1.4097845e-10
1.3472352e-10
1.2833181e-10
1.2236058e-10
1.1737285e-10
1.1382293e-10
1.1201357e-10
1.1210453e-10
1.1415288e-10
1.1815206e-10
1.2406383e-10
1.3184115e-10
1.4145333e-10
1.5290696e-10
1.6625353e-10
1.8158943e-10
1.990707e-10
2.1891497e-10
2.4140037e-10
2.6685142e-10
2.9567611e-10
3.283395e-10
3.6534177e-10
4.0730303e-10
4.5485572e-10
5.0872999e-10
5.6957955e-10
6.3832123e-10
7.156908e-10
8.0267634e-10
8.9999671e-10
1.0088038e-09
1.1297723e-09
1.2641628e-09
1.4124961e-09
1.5758026e-09
1.7545364e-09
1.9497695e-09
2.1614046e-09
2.3908078e-09
2.6378208e-09
2.9034485e-09
3.186995e-09
3.4900954e-09
3.811226e-09
4.1523013e-09
4.5113201e-09
4.8911767e-09
5.2890333e-09
5.7081124e-09
6.1454419e-09
6.6045555e-09
7.0822034e-09
7.5807195e-09
8.0975599e-09
8.6356334e-09
9.1919142e-09
9.7684416e-09
1.0362321e-08
1.0975238e-08
1.1605662e-08
1.2252825e-08
1.291655e-08
1.3596358e-08
1.4292773e-08
1.5002627e-08
1.5728422e-08
1.6466684e-08
1.7219925e-08
1.7985937e-08
1.8765494e-08
1.9553556e-08
2.0352373e-08
2.1161863e-08
2.1980167e-08
2.2805541e-08
2.3639837e-08
2.4480356e-08
2.532373e-08
2.6172954e-08
2.7027383e-08
2.7880699e-08
2.8736056e-08
2.9594877e-08
3.0449817e-08
3.1303281e-08
3.2157756e-08
3.3005673e-08
3.3848448e-08
3.4689832e-08
3.5522532e-08
3.6346598e-08
3.716394e-08
3.7971306e-08
3.8767843e-08
3.9552677e-08
4.0325617e-08
4.1085259e-08
4.1830491e-08
4.2558526e-08
4.3268556e-08
4.3959227e-08
4.4630376e-08
4.5280239e-08
4.5907935e-08
4.6511349e-08
4.7092148e-08
4.7649506e-08
4.8185117e-08
4.8699806e-08
4.9198355e-08
4.9685407e-08
5.0166947e-08
5.0647691e-08
5.1133507e-08
5.1626735e-08
5.2129553e-08
5.2637722e-08
5.3145951e-08
5.3651444e-08
5.4152865e-08
5.4652404e-08
5.5149121e-08
5.5644182e-08
5.6136225e-08
5.6625844e-08
5.7114911e-08
5.7606172e-08
5.8100063e-08
5.8594215e-08
5.9087102e-08
5.9578256e-08
6.0067418e-08
6.055353e-08
6.1034464e-08
6.1510516e-08
6.1986917e-08
6.2460303e-08
6.2932148e-08
6.3399489e-08
6.3861034e-08
6.4319321e-08
6.4771321e-08
6.5216067e-08
6.5646307e-08
6.60762e-08
6.6486333e-08
6.6880998e-08
6.7268108e-08
6.7630875e-08
6.7957435e-08
6.8315675e-08
6.8594458e-08
6.8850391e-08
6.9129423e-08
6.9280605e-08
6.9459952e-08
6.9677946e-08
6.9662079e-08
6.9646275e-08
6.9689205e-08
6.9561303e-08
6.9297829e-08
6.8879713e-08
6.8306646e-08
6.7616961e-08
6.6820142e-08
6.5855847e-08
6.471258e-08
6.3369857e-08
6.1871147e-08
6.0241597e-08
5.8457753e-08
5.6492744e-08
5.4370925e-08
5.2162351e-08
4.9894151e-08
4.7583678e-08
4.5189997e-08
4.2741128e-08
4.0253157e-08
3.778904e-08
3.5343128e-08
3.2920424e-08
3.0506784e-08
2.8138677e-08
2.5839124e-08
2.3635163e-08
2.152105e-08
1.949663e-08
1.7565176e-08
1.5743943e-08
1.4046705e-08
1.2472327e-08
1.1017315e-08
9.6738032e-09
8.4463988e-09
7.331617e-09
6.3318545e-09
5.4365819e-09
4.6405352e-09
3.9351236e-09
3.3192488e-09
2.7887452e-09
2.3413123e-09
1.9724651e-09
1.6793846e-09
1.4588078e-09
1.3082766e-09
1.2242926e-09
1.203049e-09
1.2411684e-09
1.3347784e-09
1.4809483e-09
1.6785929e-09
1.9277125e-09
2.2245838e-09
2.5697042e-09
2.9555118e-09
3.3658034e-09
3.790402e-09
4.2078033e-09
4.5995762e-09
4.9591202e-09
5.2647408e-09
5.5196929e-09
5.7273276e-09
5.8855888e-09
5.9961324e-09
6.0610985e-09
6.0876927e-09
6.0769331e-09
6.0341326e-09
5.9600004e-09
5.86131e-09
5.740114e-09
5.6024075e-09
5.4496687e-09
5.2867704e-09
5.1143914e-09
4.9370677e-09
4.7544641e-09
4.5709511e-09
4.385489e-09
4.2024986e-09
4.0204728e-09
3.8438041e-09
3.6721199e-09
3.5085032e-09
3.3521429e-09
3.2062971e-09
3.0715413e-09
2.950012e-09
2.8419658e-09
2.7488327e-09
2.6709552e-09
2.6082387e-09
2.5605988e-09
2.5263294e-09
2.5047671e-09
2.4919862e-09
2.4869163e-09
2.4823949e-09
2.4774056e-09
2.457973e-09
2.4238533e-09
2.3424072e-09
2.2549524e-09
2.2776173e-09
2.3571573e-09
2.4180702e-09
2.4437608e-09
2.4203661e-09
2.35479e-09
2.2532609e-09
2.1295046e-09
1.9944166e-09
1.8598049e-09
1.7320522e-09
1.6181845e-09
1.518493e-09
1.4342996e-09
1.364853e-09
1.3099441e-09
1.2679948e-09
1.2374228e-09
1.2162045e-09
1.2018796e-09
1.1926597e-09
1.1871446e-09
1.1809327e-09
1.1780779e-09
1.1717885e-09
1.1694049e-09
1.1615028e-09
1.1546638e-09
1.1368441e-09
1.1123224e-09
1.0825759e-09
1.0641117e-09
1.0910887e-09
1.1682426e-09
1.2740148e-09
1.2884491e-09
1.1841959e-09
9.7489512e-10
4.6197453e-10
7.3846817e-09
8.1512966e-09
1.0535365e-08
1.563751e-08
1.5879004e-08
1.6004274e-08
1.4060472e-08
1.1748815e-08
9.1091086e-09
2.1754791e-08
4.6970503e-09
1.2060402e-08
2.8709689e-08
2.2257915e-08
1.1963747e-08
1.0854453e-08
1.033929e-08
1.2473977e-08
1.8077286e-08
7.1360458e-08
1.0143106e-06
1.5072992e-06