/*--------------------------------*- C++ -*----------------------------------*\
| =========                 |                                                 |
| \\      /  F ield         | OpenFOAM: The Open Source CFD Toolbox           |
|  \\    /   O peration     | Version:  2.4.0                                 |
|   \\  /    A nd           | Web:      www.OpenFOAM.org                      |
|    \\/     M anipulation  |                                                 |
\*---------------------------------------------------------------------------*/
FoamFile
{
    version     2.0;
    format      ascii;
    class       volScalarField;
    location    "1000";
    object      omega;
}
// * * * * * * * * * * * * * * * * * * * * * * * * * * * * * * * * * * * * * //

dimensions      [0 0 -1 0 0 0 0];

internalField   nonuniform List<scalar> 
313200
(
1143704.4
1143823.5
1143954.2
1144035.9
1144069.8
1144139.8
1144391.5
1145035.8
1146352.2
1148681.8
1152429.2
1158038.8
1165999.3
1176825.9
1191036.7
1209130.3
1231580.8
1258792.5
1290832
1324900.2
1358607.6
1391268
1422341.5
1451302.1
1477799.1
1501658.2
1522610.3
1540508.8
1555391
1567078.4
1575767.9
1581647.4
1584867.8
1585534.1
1583624.3
1579341.3
1572649.9
1563801
1552737.5
1539725.9
1524720.2
1507958.3
1489427.1
1469355.7
1447709.1
1424736.2
1401156
1378256.8
1356171.8
1334827.8
1314236.8
1294337.6
1275120.5
1256551.9
1238608.4
1221265.5
1204504.7
1188298
1172629.9
1157476.3
1142818
1128649.3
1114931.5
1101669.2
1088831.1
1076409.5
1064387.9
1052755.4
1041498.3
1030590.3
1020041.9
1009802.9
999498.32
988875.01
977913.88
966655.06
955113.76
943291.35
931238.37
918942.29
906450.06
893758.55
880888.4
867878.88
854714.58
841439.54
828060.45
814587.79
801067.09
787490.29
773887.07
760286.03
746690.63
733137.8
719651.51
706246.21
693025.31
680231.49
667913.38
656061.19
644674.32
633751.55
623292.36
613291.14
603751.34
594671.62
586051.95
577895.6
570203.26
562977.21
556221.3
549937.94
544129.75
538803.39
533962.55
529612.31
525757.04
522402.91
519555.3
517219.77
515403.39
514111.87
513350.94
513127.42
513447.6
514165.86
514295.31
514295.29
514295.29
514295.29
514295.29
514295.28
514295.3
514295.29
514295.3
514295.29
514295.29
514295.29
514295.29
514295.29
514295.29
514295.29
514295.28
514295.3
514295.29
514295.29
514295.29
514295.29
514295.29
514295.29
514295.29
514295.29
514295.29
514295.29
514295.29
514295.3
514295.29
514295.29
514295.29
514295.28
514295.3
514295.28
514295.3
514295.29
514295.29
514295.29
514295.29
514295.29
514295.29
514295.3
514295.28
514295.29
514295.29
514295.29
514295.3
514295.28
514295.29
514295.29
514295.29
514295.29
514295.29
514295.3
514295.29
514295.29
514295.28
514295.3
514295.28
514295.3
514295.29
514295.29
514295.29
514295.29
514295.29
514295.29
514295.3
514295.28
514295.3
514295.29
514295.28
514295.3
514295.28
514295.3
514295.29
514295.29
514295.28
514295.3
514295.29
514295.29
514295.29
514295.29
514295.29
514295.29
514295.3
514295.28
514295.29
514295.29
514295.29
514295.3
514295.28
514295.28
514295.32
514295.29
514295.28
514295.28
514295.29
514295.32
514295.28
514295.28
514295.29
514295.31
514295.28
514295.29
514295.28
514295.28
514295.29
514295.31
514295.28
514295.29
514295.31
514295.29
514295.29
514295.27
514295.29
514295.29
514295.31
514295.28
514295.29
514295.27
514295.29
514295.32
514295.28
514295.32
514295.28
514295.29
514295.28
514295.29
514295.31
514295.28
514295.29
514295.28
514295.28
514295.28
514295.29
514295.31
514295.29
514295.28
514295.29
514295.31
514295.29
514295.28
514295.28
514295.32
514295.28
514295.29
514295.28
514295.29
514295.28
514295.32
514295.28
514295.28
514295.28
514295.29
514295.31
514295.28
514295.29
514295.28
514295.29
514295.28
514295.32
514295.28
514295.32
514295.29
514295.27
514295.29
514295.28
514295.31
514295.29
514295.29
514295.27
514295.29
514295.29
514295.31
514295.29
514295.28
514295.28
514295.32
514295.28
514295.32
514295.25
514295.28
514295.31
514295.29
514295.28
514295.28
514295.32
514295.29
514295.28
514295.28
514295.29
514295.32
514295.28
514295.28
514295.32
514295.24
514295.29
514295.32
514295.28
514295.28
514295.32
514295.28
514295.29
514295.28
514295.32
514295.28
514295.29
514295.28
514295.28
514295.32
514295.29
514295.28
514295.28
514295.28
514295.32
514295.28
514295.29
514295.28
514295.28
514295.32
514295.28
514295.29
514295.28
514295.28
514295.28
514295.33
514295.28
514295.28
514295.28
514295.32
514295.29
514295.27
514295.32
514295.25
514295.29
514295.32
514295.28
514295.32
514295.28
514295.28
514295.28
514295.28
514295.29
514295.31
514295.29
514295.28
514295.32
514295.25
514295.32
514295.28
514295.28
514295.32
514295.28
514295.28
514295.29
514295.32
514295.28
514295.28
514295.29
514295.28
514295.29
514295.27
514295.33
514295.28
514295.28
514295.32
514295.24
514295.32
514295.29
514295.31
514295.29
514295.24
514295.33
514295.28
514295.32
514295.25
514295.31
514295.28
514295.28
514295.29
514295.28
514295.32
514295.29
514295.31
514295.29
514295.29
514165.86
513447.61
513127.33
513351.19
514112.37
515404.3
517221.22
519555.78
522401.75
525755.57
529610.03
533962
538803.25
544126.12
549935.2
556219.03
562975.8
570202.73
577894.85
586051.52
594666.61
603751.76
613295.02
623293.12
633755.11
644670.55
656066.71
667910.25
680231.5
693024.56
706239.5
719656.73
733137.12
746691.35
760292.8
773888.48
787485.76
801073.19
814579.95
828062.16
841447.3
854707.82
867876.46
880886.17
893753.97
906455.1
918954.06
931222.78
943289.83
955103.6
966656.64
977919.63
988863.28
999492.86
1009797
1020029.6
1030605.9
1041504.1
1052763
1064401.2
1076421.4
1088828.5
1101687.1
1114924
1128643.7
1142826.5
1157472.3
1172616.7
1188310.7
1204490.8
1221283.3
1238620.7
1256530.1
1275115.3
1294341.4
1314210.8
1334826.8
1356156.3
1378238.5
1401192.9
1424769.9
1447688.7
1469374.7
1489447.2
1507967.4
1524739.7
1539724.7
1552696.1
1563808.2
1572654.9
1579309.7
1583620.6
1585541
1584816.9
1581650.9
1575778.5
1567095
1555410
1540491.4
1522627.3
1501665.7
1477765.4
1451295.5
1422334.9
1391276.3
1358626.2
1324904.8
1290839
1258796.5
1231581.6
1209127.2
1191035.7
1176832.8
1166002.6
1158039.7
1152429.6
1148683
1146352
1145037.2
1144394.6
1144147.2
1144076.8
1144035.8
1143961.1
1143830.3
1143704.4
195396.73
195416.04
195436.63
195448.49
195453.04
195463.52
195504.77
195613.12
195836.16
196232.5
196870.8
197827.13
199182.98
200846.7
202504.13
188402.52
166082.5
169045.03
172892.69
177618.95
182982.87
188551.73
194193.34
198412.59
200596.39
203841.66
207353.99
209689.69
211301.14
211952.64
211902.41
212399.4
212752.79
212784.62
212490.46
211857.14
210890.8
209635.39
208092.45
206311.61
204286.63
202041.16
199568.81
196897.18
194020.86
190970.3
187840.22
184799.46
181867.28
179032.91
176297.91
173654.84
171101.47
168626.83
166327.69
255152.14
251813.49
248435.66
245133.64
240910.43
238068.05
235091.38
231966.54
229141.76
226169.33
223446.09
220059.01
144707.08
141618.52
140120.48
139485.08
206883.67
208454.62
206419.03
204033.35
201609.51
199144.17
196650.11
194108.12
191514.21
188878.83
186201.51
183486.95
180741.98
177963.25
175155.54
172324.21
169478.3
166626.6
163765.5
160900.56
158037.1
155175.88
152324.43
149490.83
146593.71
93725.765
141040.1
90367.948
88705.409
87176.342
85715.527
84317.777
82981.597
81707.365
80495.828
79348.243
78268.303
77270.657
76356.668
75937.494
76418.128
78246.38
92051.821
91231.288
90487.924
89829.175
89256.048
88769.459
88370.416
88060.036
87839.347
87709.353
87671.18
87725.45
87845.045
87864.123
87863.745
87863.791
87863.851
87863.916
87864.018
87864.118
87864.203
87864.266
87864.3
87864.306
87864.284
87864.241
87864.186
87864.124
87864.055
87863.978
87863.905
87863.868
87863.839
87863.817
87863.807
87863.804
87863.806
87863.814
87863.824
87863.831
87863.838
87863.844
87863.847
87863.849
87863.851
87863.851
87863.851
87863.856
87863.853
87863.857
87863.859
87863.861
87863.862
87863.87
87863.869
87863.873
87863.882
87863.892
87863.9
87863.911
87863.922
87863.935
87863.943
87863.956
87863.968
87863.98
87863.991
87864.002
87864.015
87864.025
87864.036
87864.045
87864.056
87864.061
87864.073
87864.075
87864.085
87864.087
87864.099
87864.097
87864.107
87864.105
87864.115
87864.111
87864.119
87864.116
87864.124
87864.117
87864.126
87864.125
87864.122
87864.121
87864.133
87864.122
87864.116
87864.132
87864.132
87864.113
87864.114
87864.134
87864.111
87864.1
87864.119
87864.12
87864.083
87864.092
87864.117
87864.082
87864.064
87864.108
87864.089
87864.043
87864.087
87864.091
87864.021
87864.052
87864.086
87864.01
87864.033
87864.07
87864
87864.007
87864.062
87863.998
87863.985
87864.013
87863.999
87863.987
87863.982
87863.978
87863.972
87863.966
87863.957
87863.955
87863.951
87863.945
87863.938
87863.929
87863.93
87863.924
87863.918
87863.91
87863.904
87863.9
87863.896
87863.896
87863.888
87863.882
87863.879
87863.882
87863.884
87863.878
87863.867
87863.864
87863.868
87863.869
87863.863
87863.851
87863.848
87863.848
87863.858
87863.854
87863.838
87863.828
87863.838
87863.847
87863.84
87863.817
87863.809
87863.822
87863.828
87863.812
87863.792
87863.797
87863.808
87863.808
87863.779
87863.776
87863.796
87863.804
87863.769
87863.736
87863.759
87863.816
87863.813
87863.722
87863.68
87863.738
87863.843
87863.827
87863.676
87863.606
87863.706
87863.861
87863.863
87863.673
87863.548
87863.634
87863.841
87863.881
87863.665
87863.493
87863.554
87863.843
87863.918
87863.706
87863.437
87863.478
87863.807
87863.992
87863.828
87863.443
87863.406
87863.698
87864.045
87863.969
87863.588
87863.36
87863.562
87863.995
87864.104
87863.837
87863.454
87863.469
87863.822
87864.154
87864.068
87863.725
87863.508
87863.676
87863.999
87864.187
87863.968
87863.75
87863.644
87863.837
87864.028
87864.048
87863.891
87863.733
87863.73
87863.822
87863.917
87863.941
87863.889
87863.877
87864.018
87864.26
87864.492
87864.585
87864.573
87864.461
87864.385
87864.358
87864.403
87864.457
87864.447
87864.399
87864.338
87864.273
87864.211
87864.169
87864.122
87864.092
87864.029
87863.98
87863.931
87863.898
87863.883
87863.875
87863.859
87863.845
87863.832
87863.829
87863.822
87863.818
87863.797
87863.792
87863.785
87863.786
87863.784
87863.77
87863.755
87863.753
87863.764
87863.77
87863.748
87863.74
87863.736
87863.754
87863.751
87863.733
87863.704
87863.71
87863.73
87863.729
87863.718
87863.679
87863.708
87863.715
87864.236
87845.168
87725.462
87671.032
87709.192
87839.182
88059.959
88370.354
88769.402
89255.848
89828.962
90487.661
91231.321
92058.632
92968.454
93961.156
95034.857
96189.474
97424.23
98738.464
100132.42
101604.3
103156.69
104787.35
106495.62
108283.08
110148.46
112095.29
114119.84
116224.9
118411.09
120668.35
122960.39
125263.57
127579.06
129902.68
132225.06
134548.82
136868.67
139175.23
141456.69
118538.87
141185.72
147028.85
149780.54
152387.43
154724.39
156925.1
159057.1
161092.53
161503.68
164788.75
150553.33
159836.66
169152.75
171884.79
174064.82
175996.89
177927.33
179857.86
162183.8
151005.71
168736.94
182518.82
188374.72
191980.95
194890.28
197586.22
200247.53
202986.28
205790.78
208659.83
211615.64
214682.38
217860.13
221189.27
224590.97
228096.87
231712.35
235460.48
239282.54
243317.32
247443.02
251119.3
254632.9
257677.19
260447.35
262929.15
265177.06
267188.01
268755.32
269901.22
270620.66
270830.57
270702.27
270161.78
269170.11
267732.33
265743.65
263176.14
260085.2
256494.5
252437.99
247928.75
242971.12
237635.94
232065.31
226324.94
220497.2
215018.35
210374.78
206547.74
203456.92
201031.62
199185.6
197827.28
196870.31
196232.55
195836.19
195612.99
195504.86
195464.12
195453.56
195448.52
195437.14
195416.58
195396.71
65603.982
65610.058
65616.602
65620.195
65621.326
65624.39
65637.96
65673.872
65748.407
65881.038
66094.908
66415.434
66867.041
67208.059
66883.485
59089.962
35707.559
35766.995
36366.633
37610.065
41548.914
43994.366
46287.38
47437.767
44514.146
45147.566
47944.263
49509.937
49602.33
48652.625
46043.448
45388.32
45249.954
45135.367
45009.475
44807.774
44535.609
44207.603
43826.157
43415.035
42973.042
42497.659
41983.945
41435.083
40849.482
40230.716
39597.723
38982.243
38388.987
37815.125
37261.2
36726.159
36209.519
35700.163
35433.971
130791.11
128489.27
126745.74
124995.53
121604.2
120392.83
118832.08
116920.02
115397.9
113529.64
111976.52
108696.78
32808.959
31201.289
30850.767
33132.558
100565.37
105444.57
104629.75
103285.6
101953.56
100620.73
99307.067
97969.418
96603.481
95215.681
93805.114
92375.691
90929.387
89463.971
87977.519
86477.455
84975.538
83476.159
81975.143
80474.249
78976.031
77480.692
75991.997
74518.637
72634.291
20460.767
69854.935
19704.596
19350.448
19028.514
18724.727
18434.932
18158.402
17895.492
17647.214
17415.185
17203.76
17028.749
16905.244
17258.455
19073.952
21781.429
30907.633
30632.137
30382.585
30161.372
29968.899
29805.485
29671.481
29567.244
29493.121
29449.454
29436.622
29454.682
29494.006
29499.713
29499.569
29499.652
29499.757
29499.865
29500.031
29500.188
29500.325
29500.427
29500.486
29500.5
29500.471
29500.407
29500.324
29500.228
29500.115
29499.99
29499.875
29499.795
29499.74
29499.7
29499.679
29499.673
29499.679
29499.692
29499.709
29499.723
29499.736
29499.747
29499.753
29499.757
29499.761
29499.761
29499.761
29499.767
29499.766
29499.769
29499.773
29499.778
29499.779
29499.792
29499.796
29499.801
29499.81
29499.827
29499.839
29499.858
29499.876
29499.896
29499.912
29499.933
29499.953
29499.973
29499.992
29500.011
29500.031
29500.048
29500.067
29500.083
29500.099
29500.111
29500.127
29500.135
29500.148
29500.154
29500.169
29500.171
29500.183
29500.183
29500.196
29500.193
29500.204
29500.203
29500.211
29500.204
29500.215
29500.217
29500.21
29500.211
29500.225
29500.211
29500.202
29500.224
29500.224
29500.197
29500.199
29500.225
29500.195
29500.178
29500.207
29500.207
29500.154
29500.17
29500.203
29500.151
29500.126
29500.189
29500.161
29500.097
29500.154
29500.164
29500.063
29500.106
29500.149
29500.045
29500.076
29500.128
29500.027
29500.037
29500.111
29500.022
29500.004
29500.04
29500.019
29500.002
29499.994
29499.988
29499.977
29499.967
29499.955
29499.95
29499.944
29499.935
29499.92
29499.91
29499.907
29499.9
29499.889
29499.879
29499.868
29499.858
29499.856
29499.852
29499.842
29499.831
29499.826
29499.829
29499.829
29499.818
29499.804
29499.796
29499.8
29499.802
29499.794
29499.775
29499.764
29499.768
29499.778
29499.774
29499.746
29499.732
29499.743
29499.756
29499.745
29499.711
29499.696
29499.712
29499.721
29499.698
29499.669
29499.67
29499.685
29499.683
29499.643
29499.632
29499.662
29499.67
29499.618
29499.572
29499.601
29499.68
29499.672
29499.541
29499.479
29499.563
29499.707
29499.684
29499.467
29499.364
29499.507
29499.73
29499.729
29499.459
29499.274
29499.393
29499.686
29499.744
29499.438
29499.185
29499.275
29499.684
29499.794
29499.493
29499.107
29499.162
29499.63
29499.892
29499.67
29499.126
29499.063
29499.478
29499.97
29499.875
29499.349
29499.023
29499.296
29499.902
29500.072
29499.72
29499.188
29499.198
29499.675
29500.147
29500.048
29499.602
29499.29
29499.511
29499.959
29500.206
29499.941
29499.626
29499.486
29499.746
29500.008
29500.057
29499.838
29499.617
29499.592
29499.719
29499.855
29499.866
29499.808
29499.786
29499.952
29500.272
29500.626
29500.84
29500.923
29500.872
29500.819
29500.797
29500.83
29500.852
29500.805
29500.703
29500.586
29500.47
29500.364
29500.286
29500.207
29500.145
29500.046
29499.968
29499.886
29499.841
29499.815
29499.797
29499.769
29499.746
29499.724
29499.717
29499.706
29499.695
29499.666
29499.65
29499.642
29499.642
29499.634
29499.616
29499.589
29499.585
29499.596
29499.604
29499.578
29499.559
29499.553
29499.574
29499.573
29499.545
29499.508
29499.51
29499.532
29499.532
29499.517
29499.471
29499.508
29499.513
29499.912
29494.264
29454.722
29436.37
29449.124
29492.768
29566.959
29671.169
29805.283
29968.757
30161.28
30382.514
30632.331
30910.234
31215.901
31549.24
31909.788
32297.518
32712.172
33153.428
33621.591
34115.875
34637.159
35184.609
35758.305
36358.484
36985.07
37638.529
38318.691
39025.306
39759.826
40517.379
41287.004
42060.158
42837.467
43617.995
44397.493
45178.295
45956.85
46730.527
47525.452
31005.061
42660.157
47968.584
49476.384
50804.98
51782.079
52596.831
53353.725
54009.793
52409.907
54919.259
46424.774
45842.653
54986.761
56975.344
58204.038
58996.723
59722.601
60397.555
51591.991
38597.886
43789.004
55542.227
60919.757
63488.897
65018.469
66152.25
67125.471
68112.225
69097.956
70064.568
71054.718
72093.019
73149.107
74298.492
75444.28
76614.644
77815.179
79059.926
80251.011
81612.052
83151.059
84349.833
85646.108
86558.289
87418.124
88183
88953.8
89711.348
90284.471
90691.347
90923.873
90911.94
90861.703
90673.612
90338.905
89899.898
89247.778
88375.162
87306.52
86090.518
84745.713
83246.874
81578.394
79761.445
77897.919
75987.431
74024.362
72179.774
70622.15
69342.613
68303.772
67488.835
66871.042
66415.545
66094.232
65880.761
65748.448
65673.745
65637.709
65624.566
65621.609
65620.248
65616.763
65610.338
65604.072
30754.553
30757.218
30760.097
30761.595
30762.035
30763.24
30769.473
30786.105
30820.983
30882.945
30983.098
31133.03
31341.097
31303.344
30383.963
24456.62
9049.5704
8821.5019
9349.7768
9767.4714
10941.887
12004.385
13033.613
13416.374
12139.402
12321.262
13324.854
13667.693
13542.84
12953.883
11843.309
11568.526
11492.696
11433.941
11381.029
11305.9
11212.763
11107.932
10994.225
10881.236
10768.806
10653.749
10533.783
10408.494
10277.6
10140.845
10002.038
9866.7287
9736.2528
9609.6895
9487.2504
9368.8078
9254.0327
9136.4651
9227.8611
100613.35
97807.753
96429.98
95018.721
91611.152
90825.649
89584.265
87900.299
86667.67
84996.945
83687.163
79790.137
9347.319
8568.4936
8474.3359
9375.9238
73202.341
79379.272
78848.711
77727.441
76635.956
75556.322
74511.808
73449.082
72363.356
71260.743
70139.787
69004.619
67856
66691.79
65507.955
64313.242
63121.094
61934.815
60749.762
59566.692
58387.5
57212.157
56043.685
54891.709
52938.669
5651.8386
50992.606
5415.8199
5337.9981
5257.0753
5181.6799
5109.9562
5041.5482
4976.5999
4915.589
4859.2634
4809.6908
4774.7296
4760.2529
4991.1941
5937.453
7968.2833
14488.153
14360.426
14243.571
14139.848
14049.592
13972.961
13910.12
13861.229
13826.46
13805.962
13799.923
13808.277
13826.324
13828.768
13828.767
13828.885
13829.032
13829.182
13829.394
13829.596
13829.773
13829.904
13829.982
13830.002
13829.969
13829.891
13829.788
13829.665
13829.519
13829.357
13829.21
13829.091
13829.011
13828.952
13828.922
13828.913
13828.921
13828.941
13828.965
13828.986
13829.005
13829.02
13829.029
13829.036
13829.04
13829.041
13829.042
13829.049
13829.049
13829.052
13829.058
13829.067
13829.069
13829.083
13829.091
13829.101
13829.11
13829.131
13829.149
13829.173
13829.195
13829.222
13829.244
13829.271
13829.297
13829.323
13829.349
13829.373
13829.399
13829.422
13829.446
13829.467
13829.488
13829.504
13829.523
13829.536
13829.552
13829.561
13829.578
13829.582
13829.596
13829.598
13829.612
13829.612
13829.623
13829.624
13829.633
13829.627
13829.639
13829.642
13829.635
13829.636
13829.652
13829.636
13829.626
13829.651
13829.65
13829.62
13829.623
13829.651
13829.619
13829.6
13829.633
13829.632
13829.574
13829.591
13829.628
13829.569
13829.542
13829.611
13829.578
13829.508
13829.57
13829.579
13829.468
13829.515
13829.56
13829.445
13829.479
13829.533
13829.422
13829.433
13829.511
13829.412
13829.392
13829.429
13829.405
13829.384
13829.375
13829.366
13829.353
13829.339
13829.326
13829.318
13829.311
13829.298
13829.28
13829.269
13829.263
13829.254
13829.241
13829.227
13829.213
13829.201
13829.196
13829.191
13829.178
13829.164
13829.156
13829.157
13829.155
13829.141
13829.123
13829.112
13829.115
13829.115
13829.104
13829.081
13829.065
13829.068
13829.077
13829.069
13829.037
13829.018
13829.027
13829.039
13829.024
13828.984
13828.965
13828.98
13828.988
13828.96
13828.924
13828.923
13828.936
13828.93
13828.885
13828.869
13828.898
13828.903
13828.843
13828.791
13828.819
13828.902
13828.888
13828.74
13828.671
13828.764
13828.918
13828.888
13828.643
13828.527
13828.688
13828.937
13828.928
13828.625
13828.415
13828.541
13828.865
13828.929
13828.588
13828.306
13828.401
13828.854
13828.978
13828.646
13828.217
13828.273
13828.79
13829.084
13828.847
13828.249
13828.174
13828.629
13829.178
13829.086
13828.518
13828.158
13828.452
13829.117
13829.322
13828.955
13828.38
13828.386
13828.9
13829.424
13829.339
13828.872
13828.531
13828.767
13829.253
13829.532
13829.27
13828.923
13828.769
13829.04
13829.326
13829.393
13829.156
13828.913
13828.864
13828.998
13829.145
13829.158
13829.108
13829.092
13829.266
13829.624
13830.049
13830.361
13830.538
13830.563
13830.548
13830.532
13830.544
13830.526
13830.439
13830.292
13830.131
13829.974
13829.835
13829.725
13829.619
13829.53
13829.407
13829.306
13829.206
13829.149
13829.111
13829.084
13829.045
13829.015
13828.985
13828.972
13828.955
13828.94
13828.903
13828.881
13828.869
13828.866
13828.852
13828.831
13828.797
13828.79
13828.798
13828.805
13828.775
13828.752
13828.743
13828.762
13828.761
13828.73
13828.689
13828.685
13828.705
13828.702
13828.691
13828.641
13828.685
13828.687
13829.042
13826.723
13808.338
13799.569
13805.489
13825.936
13860.79
13909.678
13972.664
14049.434
14139.798
14243.575
14360.798
14491.172
14634.564
14790.878
14959.969
15141.75
15336.169
15543.017
15762.519
15994.256
16238.66
16495.26
16764.315
17045.652
17339.56
17645.73
17964.827
18295.927
18640.534
18995.412
19356.294
19718.59
20082.958
20449.103
20814.414
21181.034
21545.799
21907.882
22324.631
10190.439
16652.375
21308.469
22494.884
23497.839
24125.016
24574.63
24965.453
25251.279
23087.3
25384.912
19018.622
16587.345
24256.655
26063.67
27069.865
27569.831
27978.897
28313.745
22911.305
12264.452
13703.272
21876.642
26631.804
28916.054
30108.226
30844.4
31370.529
31891.347
32392.412
32850.129
33314.997
33811.391
34291.244
34848.582
35385.606
35932.769
36493.591
37070.886
37558.159
38200.116
39024.225
39549.753
40265.838
40607.841
40965.293
41273.166
41641.48
42049.53
42349.226
42563.876
42668.402
42609.29
42583.675
42485.757
42318.652
42146.215
41856.153
41442.035
40919.732
40341.149
39720.381
39030.251
38246.896
37375.642
36507.696
35624.008
34699.33
33830.804
33101.06
32505.005
32017.264
31634.63
31346.201
31133.009
30982.295
30882.513
30820.941
30785.947
30769.27
30763.361
30762.208
30761.666
30760.295
30757.419
30754.579
17358.917
17360.301
17361.869
17362.546
17362.786
17363.31
17366.855
17376.12
17395.808
17430.625
17487.147
17571.549
17685.394
17497.133
16365.968
11563.316
2576.0203
2422.9056
2510.8353
2648.6737
3006.202
3429.0334
3864.9808
3989.9183
3454.6724
3507.2491
3862.1247
3925.7469
3840.47
3576.9257
3166.2184
3069.7237
3042.0665
3021.3245
3004.0819
2980.0055
2950.979
2919.3424
2886.3876
2855.5347
2826.7615
2798.5884
2770.1716
2741.0928
2711.3482
2680.5631
2649.5512
2619.2352
2590.0434
2561.6814
2534.2228
2507.6669
2481.8543
2452.866
2550.3013
89100.964
85952.518
84691.738
83387.616
80022.407
79375.736
78239.841
76643.211
75509.601
73916.629
72690.582
68247.036
2829.7898
2485.1907
2460.2627
2839.596
62756.737
69122.116
68659.215
67617.943
66612.333
65622.451
64671.437
63704.421
62716.155
61712.994
60692.998
59660.514
58615.864
57556.927
56479.173
55391.632
54308.013
53231.214
52156.557
51084.495
50016.758
48953.201
47896.769
46856.514
44661.987
1702.0423
43146.963
1614.7375
1607.6505
1589.4006
1572.6803
1556.8421
1541.7114
1527.342
1513.9451
1501.8518
1492.0064
1488.0473
1492.5321
1613.5551
2079.9261
3392.087
8174.0855
8105.479
8039.7253
7981.1681
7930.2004
7886.9226
7851.4308
7823.8113
7804.1644
7792.5656
7789.1289
7793.7461
7803.6948
7805.0044
7805.1021
7805.257
7805.4448
7805.6348
7805.8899
7806.1313
7806.3441
7806.5022
7806.5977
7806.624
7806.5862
7806.496
7806.3731
7806.2246
7806.0493
7805.8551
7805.6768
7805.5228
7805.4177
7805.341
7805.3005
7805.2893
7805.2998
7805.3254
7805.357
7805.385
7805.4101
7805.4299
7805.4416
7805.4502
7805.4565
7805.4583
7805.459
7805.4666
7805.4681
7805.4728
7805.4798
7805.4911
7805.4954
7805.5113
7805.5237
7805.5371
7805.548
7805.5735
7805.5948
7805.6236
7805.6511
7805.6828
7805.7107
7805.7428
7805.7748
7805.807
7805.8379
7805.8678
7805.8987
7805.9269
7805.9551
7805.981
7806.0056
7806.0261
7806.0484
7806.0643
7806.0831
7806.0947
7806.1133
7806.12
7806.1353
7806.1395
7806.1548
7806.1559
7806.1686
7806.1714
7806.1801
7806.1764
7806.1893
7806.193
7806.186
7806.1884
7806.2045
7806.189
7806.1793
7806.2039
7806.2038
7806.173
7806.1769
7806.2047
7806.173
7806.1536
7806.1878
7806.1857
7806.1276
7806.1454
7806.1811
7806.1211
7806.0951
7806.1627
7806.1289
7806.058
7806.12
7806.1263
7806.0149
7806.0619
7806.1038
7805.9882
7806.0214
7806.073
7805.9601
7805.9707
7806.0461
7805.945
7805.9237
7805.959
7805.9336
7805.9109
7805.8998
7805.8887
7805.8733
7805.8576
7805.842
7805.8324
7805.8236
7805.808
7805.7875
7805.7743
7805.7663
7805.7541
7805.7388
7805.7231
7805.7067
7805.6918
7805.6845
7805.6766
7805.6607
7805.6439
7805.634
7805.632
7805.6269
7805.6103
7805.5893
7805.5755
7805.5756
7805.5722
7805.5581
7805.5315
7805.5136
7805.5136
7805.5194
7805.5083
7805.4717
7805.4501
7805.4555
7805.4645
7805.4452
7805.4005
7805.3784
7805.39
7805.3949
7805.3621
7805.3224
7805.317
7805.3263
7805.3167
7805.2674
7805.2472
7805.2718
7805.2715
7805.2071
7805.1519
7805.1776
7805.2554
7805.235
7805.0808
7805.0099
7805.1025
7805.2531
7805.2148
7804.9614
7804.8427
7805.0098
7805.2615
7805.2437
7804.9315
7804.7116
7804.8346
7805.1602
7805.2239
7804.8776
7804.588
7804.6817
7805.1392
7805.2668
7804.932
7804.4956
7804.5494
7805.0707
7805.3732
7805.1422
7804.5412
7804.4623
7804.9207
7805.4803
7805.4028
7804.8418
7804.4792
7804.7718
7805.4432
7805.668
7805.318
7804.7518
7804.7542
7805.2673
7805.8045
7805.7407
7805.2918
7804.9516
7805.1857
7805.6724
7805.9669
7805.7265
7805.382
7805.2235
7805.4848
7805.7704
7805.8489
7805.6119
7805.3654
7805.2962
7805.4238
7805.5687
7805.5939
7805.5549
7805.5558
7805.7437
7806.1297
7806.6092
7807.001
7807.2602
7807.3551
7807.376
7807.3659
7807.3529
7807.2942
7807.1689
7806.9818
7806.7822
7806.5881
7806.4184
7806.2794
7806.1483
7806.0347
7805.8911
7805.7717
7805.6557
7805.5876
7805.5382
7805.5011
7805.4539
7805.4162
7805.3795
7805.3597
7805.3376
7805.3164
7805.2748
7805.2477
7805.2302
7805.2228
7805.2049
7805.1798
7805.1413
7805.1304
7805.1353
7805.1394
7805.1082
7805.0819
7805.0698
7805.0856
7805.0828
7805.0512
7805.0087
7805
7805.016
7805.0099
7805.0021
7804.952
7805.0012
7805.0024
7805.3468
7804.2342
7793.8282
7788.6862
7791.9654
7803.4908
7823.2401
7850.8883
7886.5511
7930.013
7981.1464
8039.7965
8106.0695
8179.7501
8260.7723
8349.0387
8444.5267
8547.1407
8656.8961
8773.6423
8897.5582
9028.3629
9166.3301
9311.1466
9463.0759
9621.8256
9787.8356
9960.5554
10140.858
10327.588
10522.299
10722.427
10926.169
11130.542
11336.191
11543.079
11749.278
11956.705
12162.505
12366.431
12652.03
3752.7602
7331.882
11121.093
12143.652
13001.108
13492.268
13802.075
14052.312
14198.568
11931.343
14031.441
9028.0256
6671.447
12530.228
14189.865
15098.922
15487.712
15775.009
15973.681
12283.076
4304.118
4595.7909
9709.861
13588.397
15640.577
16686.685
17270.928
17625.732
17966.619
18282.144
18545.278
18810.441
19099.175
19354.85
19679.87
19980.911
20290.064
20610.638
20934.531
21156.147
21520.175
22056.973
22318.009
22812.985
22940.821
23113.708
23251.483
23462.165
23726.892
23915.329
24057.702
24114.311
24044.25
24033.501
23967.758
23860.57
23787.588
23637.006
23401.043
23091.664
22758.602
22413.701
22033.532
21591.173
21084.715
20599.519
20109.337
19584.056
19091.176
18679.422
18345.705
18069.882
17853.442
17691.465
17571.386
17486.25
17430.086
17395.666
17375.923
17366.658
17363.421
17362.954
17362.638
17362.075
17360.483
17358.967
10988.347
10989.125
10990.104
10990.385
10990.572
10990.777
10993.083
10998.842
11011.367
11033.292
11069.108
11122.341
11190.916
10933.875
9747.0199
5868.6065
785.93992
722.32328
733.7135
778.63196
887.86858
1040.9982
1207.7182
1248.5513
1047.5902
1064.8447
1186.4908
1195.5946
1157.4796
1055.8295
914.67984
883.4202
874.40003
867.72985
862.46162
855.07082
846.29527
836.94076
827.50273
819.12006
811.78278
804.92108
798.25835
791.59572
784.95972
778.15471
771.34357
764.63947
758.19879
751.92783
745.85335
739.98509
734.23593
725.85736
792.35862
82201.004
78802.372
77600.967
76353.265
73120.292
72527.795
71448.995
69926.234
68851.205
67330.496
66159.82
61318.055
916.059
786.87538
780.96733
945.24693
56882.05
62894.575
62440.016
61452.551
60501.821
59567.513
58670.926
57759.786
56828.467
55883.647
54922.963
53950.887
52967.584
51971.01
50956.821
49933.788
48915.07
47903.325
46894.113
45887.803
44886.091
43888.758
42898.814
41923.145
39503.23
578.2127
38309.738
537.07732
543.78891
540.04049
536.62083
533.45406
530.47099
527.69207
525.20156
523.13488
521.89113
523.01433
527.76151
584.76361
809.60084
1604.1174
5169.082
5130.5869
5089.2218
5052.1474
5019.8627
4992.4438
4969.9549
4952.4469
4939.9874
4932.6145
4930.4094
4933.2412
4939.3704
4940.2033
4940.3792
4940.5708
4940.7986
4941.029
4941.3251
4941.6055
4941.8528
4942.0372
4942.1491
4942.1811
4942.1391
4942.0363
4941.8939
4941.7204
4941.5158
4941.2907
4941.0813
4940.8946
4940.7648
4940.6706
4940.6204
4940.6066
4940.6198
4940.6513
4940.6901
4940.725
4940.756
4940.7803
4940.7952
4940.8058
4940.8135
4940.8163
4940.8177
4940.826
4940.8289
4940.8347
4940.8433
4940.857
4940.8636
4940.8816
4940.8978
4940.9148
4940.9283
4940.9576
4940.9833
4941.0165
4941.0488
4941.0855
4941.1188
4941.1562
4941.1936
4941.2311
4941.2673
4941.3024
4941.3381
4941.3709
4941.4035
4941.4335
4941.4621
4941.4861
4941.5115
4941.5305
4941.552
4941.5659
4941.5864
4941.5952
4941.6121
4941.6181
4941.6347
4941.6376
4941.6517
4941.6559
4941.6656
4941.6634
4941.6772
4941.6819
4941.6761
4941.6793
4941.6956
4941.6812
4941.6726
4941.6968
4941.6968
4941.6676
4941.672
4941.6989
4941.6686
4941.6506
4941.6838
4941.6813
4941.6257
4941.6433
4941.6766
4941.6184
4941.5939
4941.6577
4941.6238
4941.5559
4941.6145
4941.618
4941.5111
4941.5554
4941.5926
4941.4813
4941.5123
4941.5583
4941.449
4941.4586
4941.5272
4941.4285
4941.4068
4941.4382
4941.4116
4941.3876
4941.3746
4941.3614
4941.3443
4941.3265
4941.3093
4941.2976