/*--------------------------------*- C++ -*----------------------------------*\
| =========                 |                                                 |
| \\      /  F ield         | OpenFOAM: The Open Source CFD Toolbox           |
|  \\    /   O peration     | Version:  2.4.0                                 |
|   \\  /    A nd           | Web:      www.OpenFOAM.org                      |
|    \\/     M anipulation  |                                                 |
\*---------------------------------------------------------------------------*/
FoamFile
{
    version     2.0;
    format      ascii;
    class       volScalarField;
    location    "1000";
    object      p;
}
// * * * * * * * * * * * * * * * * * * * * * * * * * * * * * * * * * * * * * //

dimensions      [0 2 -2 0 0 0 0];

internalField   nonuniform List<scalar> 
313200
(
0.15291515
0.11815847
0.099729719
0.066690499
0.036405429
-0.0081219013
-0.051377081
-0.10605938
-0.15742151
-0.2148536
-0.2719602
-0.3338759
-0.39147431
-0.43876043
-0.46455581
-0.47930645
-0.48548046
-0.48928967
-0.48759193
-0.47169635
-0.44107756
-0.41275455
-0.37778405
-0.35630872
-0.33597346
-0.31991928
-0.30508482
-0.29012056
-0.27444872
-0.25932266
-0.24462322
-0.2325179
-0.21636484
-0.20919812
-0.19771902
-0.19176494
-0.18487725
-0.1796455
-0.17457472
-0.17144453
-0.16616413
-0.16319624
-0.15959758
-0.15888304
-0.15436482
-0.1528065
-0.14866809
-0.14622218
-0.14268794
-0.13982993
-0.13647313
-0.13288089
-0.12965424
-0.12678473
-0.12386328
-0.12111759
-0.11823373
-0.11508717
-0.11270126
-0.10918519
-0.1064973
-0.10313515
-0.10052196
-0.097591948
-0.095062943
-0.09239274
-0.089978919
-0.087414891
-0.085025051
-0.082263289
-0.079673231
-0.076582754
-0.074448901
-0.07102369
-0.06874144
-0.06563429
-0.063634229
-0.060804277
-0.059318996
-0.057016477
-0.055712866
-0.053413819
-0.051470114
-0.04977087
-0.048214911
-0.046800118
-0.045578669
-0.044574562
-0.043694005
-0.042977698
-0.042267702
-0.041538894
-0.04048379
-0.039508036
-0.038251926
-0.037061086
-0.035677035
-0.034316024
-0.03281241
-0.031351036
-0.029776412
-0.028334636
-0.026802676
-0.025400677
-0.023958405
-0.022607086
-0.021260662
-0.019933902
-0.018644403
-0.017400343
-0.016190435
-0.015037752
-0.013971204
-0.013029128
-0.012271802
-0.011768068
-0.011598796
-0.011819512
-0.012484228
-0.013629371
-0.015288148
-0.01748035
-0.020246636
-0.023597296
-0.027622138
-0.03226342
-0.037620562
-0.043344245
-0.049365305
-0.055309777
-0.060880419
-0.065641772
-0.069234791
-0.071291798
-0.071622348
-0.070170374
-0.067226539
-0.063226112
-0.058838444
-0.054747342
-0.05172268
-0.050284637
-0.050710762
-0.052935813
-0.056687553
-0.061564728
-0.067151998
-0.073109002
-0.079156644
-0.085175634
-0.091136886
-0.097081456
-0.10303618
-0.10908165
-0.11529245
-0.12171785
-0.12832451
-0.1351013
-0.14204608
-0.14910425
-0.15615273
-0.16311955
-0.16993011
-0.1765125
-0.1827447
-0.18853763
-0.19381457
-0.19852943
-0.20260459
-0.20599421
-0.20863013
-0.21053354
-0.21167183
-0.21208358
-0.21165757
-0.21053711
-0.20872566
-0.20635465
-0.20335131
-0.19986562
-0.19593459
-0.19171227
-0.18712729
-0.18228719
-0.17714352
-0.17176576
-0.1661759
-0.16052133
-0.15469941
-0.14896382
-0.1431572
-0.13753299
-0.13164724
-0.12595707
-0.12002434
-0.11437152
-0.1083975
-0.10267615
-0.096768087
-0.091186212
-0.085412684
-0.079884312
-0.074321418
-0.069032854
-0.063708444
-0.058530929
-0.05332623
-0.048118905
-0.042776982
-0.037194987
-0.031459079
-0.0253772
-0.019185833
-0.012617405
-0.0060305455
0.00079479746
0.0074582406
0.014160416
0.020694999
0.02714384
0.033317316
0.039238515
0.044960297
0.050484174
0.055820891
0.060967161
0.065891769
0.070618822
0.075174762
0.079573881
0.08381636
0.087939183
0.09196126
0.095901875
0.099758165
0.1035579
0.1073004
0.11099142
0.11461389
0.11818161
0.12169105
0.12515863
0.12858788
0.13199941
0.13538418
0.13874232
0.14205755
0.14533371
0.14855516
0.1517235
0.15483434
0.15789727
0.1608943
0.16382154
0.16668287
0.16953491
0.17230345
0.17498008
0.17756992
0.18011958
0.18258233
0.18499946
0.18733674
0.18960866
0.19179886
0.19388352
0.19587391
0.19771359
0.19942794
0.2009436
0.20225125
0.20332935
0.20413436
0.2046294
0.20484257
0.20484143
0.20477765
0.20486218
0.20528617
0.20616012
0.2073618
0.20854546
0.20942281
0.2099176
0.20968902
0.20873298
0.20700243
0.2044804
0.20124973
0.19729218
0.19268088
0.18731861
0.18134003
0.17467303
0.1675847
0.15994907
0.15218854
0.14417102
0.13630361
0.12845376
0.12077006
0.11293002
0.10520735
0.09723696
0.088437375
0.079210795
0.070136423
0.061189155
0.051461561
0.041056153
0.029767037
0.017799733
0.0049154146
-0.0087316716
-0.023374368
-0.038898832
-0.055665619
-0.07372719
-0.093368791
-0.11397962
-0.13494273
-0.15589452
-0.17678863
-0.19783116
-0.21901046
-0.24064305
-0.26252469
-0.28511421
-0.30801475
-0.33163979
-0.35539716
-0.37974914
-0.4040045
-0.42855338
-0.45257088
-0.4762786
-0.49881071
-0.52023969
-0.53986689
-0.55739295
-0.5724002
-0.58449672
-0.59386092
-0.599906
-0.60334644
-0.60378773
-0.60239663
-0.59896649
-0.59487178
-0.59005237
-0.58569127
-0.58176618
-0.57889548
-0.576548
-0.57430274
-0.57070476
-0.56377485
-0.55052118
-0.52729995
-0.49120019
-0.44037503
-0.37676315
-0.30540977
-0.23477662
-0.17188371
-0.12256732
-0.088223995
-0.068601949
-0.060501316
-0.059677441
-0.063798961
-0.071173744
-0.08057229
-0.090997292
-0.10194531
-0.11293135
-0.12383596
-0.13435687
-0.1445681
-0.15428714
-0.16368621
-0.17265786
-0.18141423
-0.18990461
-0.19836471
-0.20678496
-0.21536347
-0.22405814
-0.23314885
-0.24253471
-0.25256436
-0.26296889
-0.27408897
-0.28568889
-0.29805945
-0.31094257
-0.32452201
-0.33855069
-0.35316373
-0.36821703
-0.38383278
-0.39986683
-0.41629889
-0.43302643
-0.44994975
-0.4671398
-0.48455107
-0.5023186
-0.52051418
-0.53941999
-0.55923505
-0.58032491
-0.60296838
-0.62744929
-0.65453423
-0.6855139
-0.71902105
-0.75317432
-0.78683814
-0.81886299
-0.84824472
-0.87463959
-0.89746302
-0.9169323
-0.93223143
-0.94360334
-0.95014609
-0.95274034
-0.95086847
-0.94596788
-0.93789258
-0.92831373
-0.91759433
-0.90676098
-0.89624082
-0.8858308
-0.87578839
-0.86991456
-0.86194153
-0.86042691
-0.85369767
-0.85425779
-0.84694507
-0.84485676
-0.83552271
-0.82514427
-0.81095209
-0.78583106
-0.75569503
-0.69369122
-0.64711817
-0.56707409
-0.49121497
-0.45108996
-0.46446067
-0.49227327
-0.53875682
-0.45070348
-0.2885783
0.068411541
0.43126688
0.82400677
1.2966644
1.6072595
1.3106856
1.1834339
-0.061718379
-0.76408774
-2.5575926
-3.4593383
-4.277137
-4.5388376
-4.0632722
-2.986644
-1.1026194
1.1187006
4.1397073
6.8173941
8.9037978
10.473299
10.06
8.0486906
5.9135155
2.9824804
0.31518613
-2.9817355
-6.8191819
-10.604204
-12.908999
-12.095893
-8.5188815
-4.6315602
-2.0845721
-4.6856102
-6.5268397
-9.8795629
-6.8523136
3.5253394
10.795986
14.000463
10.54383
1.8307555
-5.7636833
-7.7547269
-3.9902106
1.8421441
8.4376014
7.150985
2.6816469
-1.0833312
-2.4777555
-1.286095
0.76303119
1.5464598
0.46001411
-0.99854739
-0.97601078
-0.065820252
0.46893444
-0.0016408319
-0.37078656
0.10615776
0.33686425
0.19959304
0.20572148
0.36267312
0.35694487
0.30256043
0.31370513
0.31680629
0.2901847
0.28208302
0.27687904
0.26383811
0.24537673
0.23882905
0.22254782
0.21224914
0.19482209
0.18581221
0.1529174
0.11816087
0.099733234
0.066694974
0.036409966
-0.0081170498
-0.051375064
-0.1060594
-0.1574279
-0.21486345
-0.27196697
-0.33388025
-0.39147441
-0.43877016
-0.46458065
-0.47933151
-0.48549717
-0.48928813
-0.48757652
-0.47168519
-0.44108369
-0.41275701
-0.37781258
-0.3563231
-0.33599468
-0.31993658
-0.30510069
-0.29013607
-0.27446616
-0.25934098
-0.24464405
-0.23253207
-0.21639688
-0.20921511
-0.19774722
-0.19178492
-0.1848966
-0.17966118
-0.17458842
-0.17145361
-0.16617416
-0.16320185
-0.15960143
-0.15888117
-0.15436591
-0.15280342
-0.14866662
-0.1462194
-0.14268514
-0.1398259
-0.13647015
-0.13287884
-0.12965173
-0.12678175
-0.12386009
-0.12111407
-0.11823005
-0.11508593
-0.11269631
-0.1091842
-0.10649375
-0.10313452
-0.10051936
-0.09759041
-0.095060624
-0.092390818
-0.089976396
-0.087412681
-0.085022476
-0.082261747
-0.079671891
-0.07658379
-0.074447582
-0.071026206
-0.068742149
-0.065637579
-0.063635681
-0.060808308
-0.059320322
-0.057020153
-0.055715095
-0.053419535
-0.051476553
-0.049778002
-0.048222795
-0.046808555
-0.045587274
-0.044582742
-0.043701868
-0.042984828
-0.04227433
-0.041544479
-0.040489918
-0.039513237
-0.038257261
-0.037065556
-0.035681401
-0.034319723
-0.032816109
-0.031354143
-0.029779581
-0.028337169
-0.02680522
-0.025402697
-0.023960319
-0.022608551
-0.021261966
-0.019935103
-0.018645477
-0.017401259
-0.016191209
-0.01503835
-0.013971594
-0.01302934
-0.012271856
-0.01176797
-0.011598568
-0.011819222
-0.012483957
-0.013629152
-0.015288124
-0.017480626
-0.020247444
-0.023598772
-0.027624739
-0.032267497
-0.037625773
-0.043350134
-0.049371909
-0.055316745
-0.060887505
-0.065648568
-0.069240746
-0.071296416
-0.071625167
-0.070171358
-0.067225484
-0.063223252
-0.058833853
-0.05474151
-0.051715788
-0.050277211
-0.050703345
-0.052929188
-0.056682409
-0.061561404
-0.067150573
-0.0731091
-0.079157957
-0.085177617
-0.091139138
-0.097083486
-0.103038
-0.10908318
-0.11529377
-0.12171884
-0.12832551
-0.13510238
-0.14204738
-0.14910559
-0.15615441
-0.16312159
-0.16993258
-0.17651519
-0.18274781
-0.18854115
-0.19381855
-0.19853372
-0.20260922
-0.20599911
-0.20863531
-0.2105389
-0.21167724
-0.21208888
-0.21166287
-0.21054249
-0.20873089
-0.20635966
-0.20335606
-0.19987028
-0.19593891
-0.19171625
-0.18713078
-0.18229036
-0.17714618
-0.1717682
-0.16617815
-0.1605235
-0.15470159
-0.14896577
-0.1431592
-0.13753436
-0.13164879
-0.12595792
-0.12002553
-0.11437182
-0.10839819
-0.10267616
-0.096768602
-0.091186098
-0.085412909
-0.079884127
-0.074321509
-0.069032618
-0.063708164
-0.058530363
-0.053325262
-0.04811762
-0.042774983
-0.03719297
-0.031456262
-0.02537461
-0.019182446
-0.012614456
-0.0060271031
0.00079763218
0.0074613473
0.014163238
0.020697894
0.027146443
0.033319851
0.03924099
0.044962715
0.05048658
0.055823314
0.060969556
0.065894184
0.070621243
0.075177237
0.079576386
0.083818945
0.08794179
0.091963956
0.095904605
0.099760972
0.10356069
0.10730324
0.11099423
0.11461672
0.1181844
0.12169386
0.12516143
0.12859071
0.13200219
0.13538695
0.13874505
0.14206027
0.14533636
0.14855779
0.15172607
0.15483691
0.15789978
0.1608968
0.163824
0.1666854
0.16953728
0.17230579
0.17498241
0.17757232
0.18012183
0.18258464
0.18500167
0.18733901
0.18961091
0.19180111
0.19388579
0.19587615
0.19771592
0.19943027
0.20094597
0.20225368
0.20333178
0.20413688
0.20463208
0.20484538
0.20484434
0.20478075
0.20486559
0.20528993
0.20616399
0.20736538
0.2085487
0.20942603
0.20992016
0.20969157
0.20873528
0.20700465
0.20448263
0.20125194
0.1972945
0.19268311
0.18732109
0.18134244
0.17467592
0.16758737
0.15995237
0.15219156
0.14417451
0.13630683
0.1284571
0.120773
0.11293279
0.10520985
0.097239421
0.088440627
0.079214721
0.070140921
0.061192187
0.051464193
0.041057656
0.029768338
0.017800163
0.0049158915
-0.0087320404
-0.023374733
-0.038900339
-0.055667301
-0.073730193
-0.093372492
-0.11398492
-0.13494862
-0.15590138
-0.17679626
-0.19783947
-0.21901957
-0.24065241
-0.26253515
-0.28512447
-0.30802601
-0.3316504
-0.35540884
-0.3797598
-0.404016
-0.4285635
-0.45258164
-0.47628799
-0.49882056
-0.52024853
-0.5398757
-0.55740145
-0.57240848
-0.58450542
-0.5938685
-0.5999141
-0.60335258
-0.60379385
-0.60240001
-0.59896922
-0.59487158
-0.59005147
-0.58568891
-0.58176465
-0.57889549
-0.57655226
-0.57431348
-0.57072365
-0.5638034
-0.55055814
-0.52734432
-0.49124505
-0.44041574
-0.37679064
-0.30542129
-0.23477015
-0.17186327
-0.12253631
-0.088188086
-0.068564218
-0.060465014
-0.059642781
-0.063766863
-0.071144448
-0.080545963
-0.09097384
-0.10192458
-0.11291324
-0.12382019
-0.13434331
-0.14455641
-0.15427718
-0.16367764
-0.17265053
-0.18140791
-0.18989914
-0.19835994
-0.20678075
-0.21535973
-0.22405503
-0.23314642
-0.24253295
-0.25256306
-0.26296829
-0.27408897
-0.2856896
-0.29806071
-0.31094442
-0.32452439
-0.3385535
-0.35316723
-0.36822069
-0.38383675
-0.3998704
-0.41630252
-0.43302917
-0.4499523
-0.4671409
-0.48455149
-0.50231698
-0.52051129
-0.53941451
-0.5592284
-0.58031579
-0.60295903
-0.62743854
-0.65452328
-0.68549982
-0.71900808
-0.75316441
-0.78683431
-0.81886406
-0.84825178
-0.87464945
-0.89747616
-0.91694558
-0.93224757
-0.94361983
-0.95016736
-0.95276493
-0.95090244
-0.94600902
-0.93794635
-0.92837665
-0.91766782
-0.90683981
-0.89632418
-0.88591624
-0.87588503
-0.86999093
-0.8620178
-0.86047562
-0.85375185
-0.85427131
-0.84697043
-0.84484667
-0.83552256
-0.82513097
-0.81092987
-0.78581031
-0.7556367
-0.69370812
-0.64708763
-0.56718331
-0.49152354
-0.45158499
-0.46497325
-0.49261166
-0.53846847
-0.44971284
-0.28657753
0.070981771
0.43433346
0.82707098
1.2980447
1.6067713
1.3093609
1.1785964
-0.065356722
-0.77128438
-2.5612149
-3.4638258
-4.2797424
-4.5391226
-4.061066
-2.9812954
-1.0947501
1.1297944
4.1510848
6.8283001
8.9121908
10.473925
10.056229
8.0431667
5.9043643
2.9758117
0.30603399
-2.9922008
-6.8303951
-10.613043
-12.911215
-12.090541
-8.5089359
-4.6208006
-2.0823633
-4.6864672
-6.5354746
-9.8754778
-6.8369576
3.5348675
10.806598
13.998922
10.530016
1.8133933
-5.7746695
-7.7543803
-3.9811444
1.8562268
8.4351275
7.1460374
2.6743757
-1.088161
-2.477944
-1.2833844
0.76517056
1.5459629
0.4580176
-0.99929856
-0.97527474
-0.064882639
0.46847508
-0.0021816449
-0.37025877
0.1064915
0.3369134
0.19960501
0.20582047
0.36269919
0.35692962
0.30256329
0.31371346
0.31680841
0.29018809
0.28208679
0.27688102
0.26383829
0.24537631
0.23882766
0.22254679
0.21224878
0.19482264
0.1858138
0.15292093
0.11816461
0.099739071
0.066702217
0.036417605
-0.0081090905
-0.051371277
-0.10605927
-0.1574375
-0.21487897
-0.27197649
-0.33388585
-0.39147199
-0.43878366
-0.46461789
-0.47936962
-0.48552118
-0.48928292
-0.48754826
-0.47166445
-0.44109072
-0.41275914
-0.37785704
-0.35634526
-0.33602788
-0.31996366
-0.30512529
-0.29016017
-0.27449314
-0.25936937
-0.24467621
-0.23255345
-0.21644704
-0.20924083
-0.19779094
-0.19181523
-0.18492572
-0.17968425
-0.17460812
-0.17146579
-0.16618773
-0.16320825
-0.15960482
-0.15887535
-0.15436474
-0.15279561
-0.14866131
-0.14621202
-0.14267765
-0.13981645
-0.13646242
-0.13287261
-0.12964475
-0.12677404
-0.12385204
-0.12110552
-0.11822131
-0.11508118
-0.11268564
-0.10918002
-0.10648553
-0.10313112
-0.10051287
-0.097585767
-0.095054875
-0.09238586
-0.089970631
-0.087407595
-0.085016989
-0.08225812
-0.079668796
-0.076584697
-0.074444857
-0.071029793
-0.068742945
-0.065642589
-0.063637777
-0.060814517
-0.059322125
-0.057025633
-0.055718153
-0.053428075
-0.051486139
-0.049788561
-0.048234425
-0.046820934
-0.045599791
-0.044594461
-0.043712982
-0.042994687
-0.042283332
-0.041551785
-0.040498097
-0.039519939
-0.038264207
-0.03707115
-0.035686876
-0.034324181
-0.032820627
-0.031357776
-0.02978338
-0.028340017
-0.026808156
-0.025404864
-0.02396239
-0.022609982
-0.021263217
-0.019936272
-0.018646522
-0.017402129
-0.016191919
-0.015038842
-0.013971802
-0.013029305
-0.012271596
-0.011767488
-0.011597879
-0.011818422
-0.012483147
-0.013628362
-0.015287538
-0.017480371
-0.020247816
-0.02359992
-0.027627214
-0.03227181
-0.037632082
-0.043357867
-0.049381028
-0.055326748
-0.060898022
-0.065658994
-0.069250204
-0.071304092
-0.071630255
-0.070173719
-0.067224689
-0.063219584
-0.058827359
-0.054732924
-0.051705367
-0.050265779
-0.050691765
-0.052918709
-0.056674143
-0.061555913
-0.067148012
-0.073108898
-0.079159661
-0.08518038
-0.091142339
-0.097086342
-0.10304053
-0.10908527
-0.11529553
-0.12172007
-0.12832675
-0.13510375
-0.14204908
-0.14910736
-0.1561567
-0.16312445
-0.16993612
-0.17651908
-0.18275238
-0.18854636
-0.19382448
-0.19854016
-0.20261621
-0.20600652
-0.20864316
-0.21054705
-0.21168547
-0.21209692
-0.21167091
-0.21055068
-0.20873884
-0.20636728
-0.20336324
-0.19987735
-0.19594544
-0.19172226
-0.18713601
-0.18229508
-0.17715011
-0.17177179
-0.16618147
-0.16052673
-0.15470486
-0.14896872
-0.14316223
-0.13753642
-0.13165116
-0.1259592
-0.12002736
-0.11437227
-0.10839928
-0.10267619
-0.096769466
-0.091185985
-0.085413363
-0.079883956
-0.074321805
-0.069032419
-0.063707913
-0.058529673
-0.053323933
-0.048115795
-0.042772012
-0.037189981
-0.031451994
-0.025370718
-0.019177287
-0.01261002
-0.0060218983
0.0008018337
0.007465958
0.014167369
0.020702119
0.027150175
0.033323455
0.039244483
0.044966104
0.050489939
0.05582669
0.060972879
0.065897535
0.070624598
0.07518068
0.079579878
0.083822568
0.087945451
0.091967764
0.095908476
0.099764974
0.10356467
0.1073073
0.11099825
0.1146208
0.11818841
0.12169793
0.1251655
0.12859484
0.13200624
0.13539102
0.13874906
0.14206428
0.14534027
0.1485617
0.15172991
0.15484076
0.15790356
0.16090058
0.16382772
0.16668927
0.16954091
0.17230941
0.17498603
0.17757609
0.18012537
0.18258831
0.18500521
0.18734265
0.18961455
0.19180478
0.19388952
0.19587988
0.19771981
0.19943419
0.20094999
0.20225782
0.20333596
0.20414124
0.20463673
0.20485029
0.20484945
0.20478619
0.20487158
0.20529652
0.2061708
0.20737176
0.20855456
0.20943188
0.20992496
0.20969638
0.20873974
0.20700901
0.20448704
0.20125634
0.19729911
0.19268761
0.18732605
0.18134732
0.17468161
0.16759276
0.15995879
0.15219757
0.14418132
0.13631323
0.12846374
0.12077904
0.11293856
0.10521522
0.097244788
0.088447267
0.079222373
0.070149518
0.061198521
0.051469919
0.041061586
0.02977196
0.017802394
0.0049182069
-0.0087310912
-0.023373778
-0.03890123
-0.055668475
-0.073733514
-0.093376982
-0.11399206
-0.13495675
-0.15591115
-0.17680729
-0.19785163
-0.21903307
-0.24066636
-0.26255091
-0.28513999
-0.30804318
-0.33166658
-0.35542682
-0.3797762
-0.4040338
-0.42857917
-0.45259841
-0.47630263
-0.49883603
-0.52026246
-0.53988968
-0.55741504
-0.57242184
-0.58451958
-0.59388096
-0.59992752
-0.60336294
-0.60380426
-0.60240606
-0.59897424
-0.59487188
-0.59005063
-0.58568566
-0.58176266
-0.57889592
-0.57655951
-0.57433119
-0.57075461
-0.5638502
-0.55061892
-0.52741761
-0.49131982
-0.44048444
-0.37683846
-0.30544355
-0.23476345
-0.17183394
-0.1224898
-0.088133478
-0.068506463
-0.060409315
-0.059589354
-0.063717158
-0.071098841
-0.080504747
-0.09093687
-0.10189165
-0.11288421
-0.12379464
-0.13432105
-0.14453694
-0.15426029
-0.16366282
-0.17263756
-0.18139644
-0.18988891
-0.19835073
-0.20677234
-0.21535202
-0.22404827
-0.23314069
-0.24252825
-0.25255907
-0.2629654
-0.27408701
-0.28568876
-0.29806078
-0.31094542
-0.32452627
-0.33855608
-0.35317097
-0.36822472
-0.38384135
-0.39987438
-0.41630668
-0.43303195
-0.44995483
-0.46714115
-0.48455068
-0.50231294
-0.52050524
-0.5394043
-0.55921631
-0.58029979
-0.60294263
-0.62742013
-0.65450448
-0.68547516
-0.71898474
-0.75314563
-0.78682494
-0.81886217
-0.84825899
-0.87466062
-0.89749201
-0.91696106
-0.93226705
-0.94363933
-0.95019398
-0.95279633
-0.9509484
-0.94606594
-0.938023
-0.92846736
-0.91777493
-0.90695475
-0.89644565
-0.88604024
-0.87602607
-0.8700987
-0.86212421
-0.86053654
-0.85382047
-0.8542733
-0.84699042
-0.84480841
-0.83549918
-0.8250849
-0.81086783
-0.78574857
-0.75551358
-0.69370651
-0.64701293
-0.56733977
-0.49200866
-0.4523749
-0.46579082
-0.49313962
-0.53797018
-0.44805451
-0.28326014
0.075248433
0.43941587
0.83215267
1.3003655
1.6060195
1.3071883
1.170703
-0.071352943
-0.78303658
-2.5671856
-3.4711528
-4.2840006
-4.5395712
-4.0574208
-2.9724948
-1.0817907
1.1480423
4.1698457
6.846286
8.9260343
10.475026
10.050023
8.0340216
5.889309
2.9647993
0.29101036
-3.0093931
-6.8488538
-10.627632
-12.914904
-12.081695
-8.492425
-4.6029584
-2.07856
-4.68801
-6.5497439
-9.8689861
-6.8117534
3.5508521
10.824168
13.996394
10.507115
1.7845171
-5.7929605
-7.7538071
-3.966043
1.8795074
8.4312617
7.1377656
2.6622316
-1.0962052
-2.4782636
-1.278872
0.76874005
1.5451469
0.45468745
-1.0005819
-0.97406787
-0.063326945
0.46773165
-0.0030842036
-0.36941086
0.10704693
0.33699789
0.19961944
0.20597915
0.36274458
0.35690436
0.30256673
0.31372658
0.31681218
0.29019281
0.28209268
0.27688383
0.26383836
0.24537513
0.23882523
0.2225449
0.21224808
0.19482335
0.18581648
0.152926
0.11816995
0.099747434
0.066712802
0.036428721
-0.0080973719
-0.051365496
-0.10605885
-0.15745097
-0.21490123
-0.2719893
-0.33389275
-0.39146598
-0.43880081
-0.46466906
-0.47942265
-0.48555341
-0.48927297
-0.48750398
-0.47163142
-0.4410981
-0.41276027
-0.37792025
-0.3563765
-0.3360752
-0.32000225
-0.30516009
-0.29019432
-0.2745313
-0.25940953
-0.2447216
-0.23258302
-0.21651862
-0.20927653
-0.19785285
-0.19185744
-0.18496603
-0.17971564
-0.17463451
-0.1714811
-0.16620501
-0.16321505
-0.15960721
-0.15886422
-0.1543604
-0.15278157
-0.14865091
-0.14619861
-0.14266404
-0.13980003
-0.13644849
-0.13286089
-0.12963196
-0.12676021
-0.12383773
-0.12109051
-0.11820607
-0.11507181
-0.11266768
-0.10917163
-0.10647131
-0.10312405
-0.10050136
-0.097577072
-0.095044709
-0.092376995
-0.089960724
-0.087398836
-0.085007799
-0.082251818
-0.079663428
-0.076585343
-0.074440315
-0.071034591
-0.068743767
-0.065649635
-0.063640593
-0.06082333
-0.059324461
-0.057033248
-0.055722108
-0.053439852
-0.051499339
-0.049803041
-0.048250317
-0.046837779
-0.045616713
-0.044610123
-0.043727679
-0.043007495
-0.042294852
-0.04156083
-0.040508413
-0.039528116
-0.038272773
-0.037077785
-0.035693387
-0.034329267
-0.032825855
-0.031361775
-0.029787686
-0.028343004
-0.026811336
-0.025406995
-0.02396445
-0.022611185
-0.021264231
-0.019937236
-0.018647376
-0.017402795
-0.016192417
-0.015039079
-0.013971674
-0.013028863
-0.012270852
-0.011766435
-0.01159652
-0.011816884
-0.012481548
-0.013626723
-0.01528608
-0.017479243
-0.020247365
-0.023600306
-0.027629035
-0.032275777
-0.037639122
-0.043367307
-0.049392692
-0.055339991
-0.060912325
-0.065673551
-0.069263751
-0.071315448
-0.071638199
-0.070177978
-0.067224541
-0.063215349
-0.058819021
-0.054721494
-0.051691167
-0.050249968
-0.050675551
-0.052903876
-0.056662288
-0.061547865
-0.067144033
-0.073108208
-0.079161664
-0.085183898
-0.091146501
-0.097090031
-0.10304378
-0.10908792
-0.11529772
-0.1217215
-0.12832819
-0.13510537
-0.14205117
-0.14910952
-0.15615961
-0.16312818
-0.16994082
-0.17652427
-0.18275854
-0.18855344
-0.19383262
-0.19854902
-0.20262586
-0.20601677
-0.20865405
-0.21055838
-0.21169691
-0.21210809
-0.21168208
-0.21056207
-0.2087499
-0.20637787
-0.20337323
-0.19988719
-0.19595451
-0.1917306
-0.18714324
-0.18230159
-0.1771555
-0.17177673
-0.16618603
-0.16053122
-0.15470945
-0.14897288
-0.14316656
-0.13753935
-0.13165456
-0.12596105
-0.12003005
-0.11437296
-0.10840094
-0.10267633
-0.096770861
-0.091185978
-0.085414217
-0.079883928
-0.074322486
-0.069032398
-0.063707838
-0.058528973
-0.053322313
-0.04811345
-0.042768003
-0.037185951
-0.031446111
-0.025365394
-0.019170134
-0.012603943
-0.0060147298
0.00080750679
0.0074721991
0.014172885
0.020707746
0.027155059
0.033328135
0.039248994
0.044970453
0.050494236
0.055831004
0.060977111
0.065901803
0.070628873
0.075185082
0.079584353
0.083827239
0.087950185
0.091972721
0.095913531
0.099770228
0.1035699
0.10731265
0.11100358
0.11462621
0.11819373
0.12170335
0.12517093
0.12860038
0.13201168
0.13539652
0.13875447
0.14206972
0.14534559
0.14856702
0.15173515
0.15484604
0.15790875
0.1609058
0.16383289
0.16669466
0.16954597
0.17231449
0.17499114
0.17758143
0.18013041
0.18259356
0.18501028
0.18734792
0.18961984
0.19181015
0.19389501
0.19588538
0.19772559
0.19944004
0.200956
0.20226405
0.20334228
0.20414785
0.2046438
0.20485776
0.20485724
0.20479453
0.20488075
0.20530663
0.20618127
0.20738162
0.20856367
0.209441
0.20993257
0.20970401
0.2087469
0.20701604
0.20449419
0.2012635
0.19730662
0.19269498
0.18733412
0.18135533
0.17469084
0.16760158
0.15996919
0.1522074
0.14419238
0.13632373
0.12847462
0.12078908
0.11294824
0.10522436
0.097253957
0.088458268
0.079234751
0.070163271
0.061209089
0.05147965
0.041068738
0.029778698
0.017807127
0.0049230745
-0.0087282134
-0.023370889
-0.038901033
-0.055668693
-0.073736863
-0.093382051
-0.11400102
-0.13496719
-0.155924
-0.17682202
-0.19786803
-0.21905146
-0.24068544
-0.26257268
-0.28516144
-0.30806707
-0.33168908
-0.35545199
-0.3797991
-0.4040588
-0.42860109
-0.452622
-0.47632318
-0.49885786
-0.5202821
-0.5399095
-0.55743438
-0.57244097
-0.58453999
-0.59389904
-0.59994714
-0.60337828
-0.60381982
-0.60241542
-0.5989822
-0.59487304
-0.59005015
-0.58568164
-0.58176037
-0.57889696
-0.57657023
-0.57435686
-0.57079931
-0.56391777
-0.55070682
-0.52752398
-0.49142889
-0.44058551
-0.37691011
-0.30547897
-0.23475748
-0.17179557
-0.1224267
-0.088058558
-0.068426743
-0.060332209
-0.059515108
-0.063647839
-0.071034983
-0.080446786
-0.090884627
-0.10184485
-0.11284269
-0.12375785
-0.13428873
-0.1445084
-0.15423527
-0.1636406
-0.17261787
-0.18137877
-0.18987292
-0.1983361
-0.20675877
-0.21533936
-0.22403691
-0.23313076
-0.24251975
-0.25255155
-0.26295942
-0.27408235
-0.2856857
-0.298059
-0.31094499
-0.32452709
-0.33855794
-0.35317454
-0.36822874
-0.38384622
-0.39987839
-0.416311
-0.43303431
-0.44995691
-0.46714
-0.48454806
-0.5023057
-0.52049515
-0.53938826
-0.55919758
-0.58027546
-0.60291772
-0.62739256
-0.65447628
-0.68543751
-0.71894819
-0.75311507
-0.78680741
-0.81885494
-0.84826444
-0.87467138
-0.89750911
-0.91697724
-0.93228867
-0.94366058
-0.95022518
-0.95283397
-0.95100667
-0.94613953
-0.93812465
-0.92858875
-0.91791949
-0.90711006
-0.89660978
-0.8862074
-0.87621691
-0.87024116
-0.86226394
-0.86060914
-0.85390369
-0.85425863
-0.84700134
-0.84473351
-0.83544492
-0.82499616
-0.8107543
-0.78563369
-0.75530885
-0.69367872
-0.64688043
-0.56754769
-0.49269845
-0.4535088
-0.46696275
-0.49388445
-0.53721063
-0.44559416
-0.27836836
0.081534187
0.44689585
0.83963556
1.3037995
1.6049401
1.3040077
1.1591546
-0.080143223
-0.80020691
-2.5758986
-3.4818039
-4.2901558
-4.540139
-4.0519977
-2.9595225
-1.0627332
1.1748417
4.1973817
6.8726663
8.946317
10.476596
10.040825
8.0205143
5.8671759
2.9485752
0.26895749
-3.0346072
-6.8758844
-10.648913
-12.920125
-12.068518
-8.4680651
-4.5768001
-2.0730085
-4.6903519
-6.5706652
-9.8593094
-6.7745849
3.5743853
10.849665
13.99225
10.473087
1.74193
-5.8196883
-7.7526598
-3.9436013
1.913647
8.425423
7.1253308
2.6442557
-1.1079927
-2.4786273
-1.2721697
0.77397041
1.5438842
0.44975021
-1.0024628
-0.97227328
-0.061041723
0.46663039
-0.0044155584
-0.36816647
0.10786387
0.33711946
0.19963888
0.2062108
0.36281072
0.35686658
0.30257183
0.31374522
0.3168176
0.2901994
0.28210105
0.27688736
0.26383817
0.24537313
0.23882127
0.22254198
0.21224679
0.19482433
0.18582024
0.15293234
0.11817667
0.099758093
0.066726455
0.036443069
-0.0080821371
-0.051357871
-0.10605815
-0.15746816
-0.21492997
-0.27200546
-0.33390099
-0.39145653
-0.43882111
-0.46473318
-0.47948978
-0.48559371
-0.48925902
-0.4874449
-0.47158674
-0.44110572
-0.41276033
-0.3780012
-0.35641644
-0.33613601
-0.32005186
-0.30520467
-0.29023806
-0.2745801
-0.2594609
-0.24477959
-0.23262038
-0.21661056
-0.20932179
-0.19793206
-0.191911
-0.185017
-0.17975499
-0.17466735
-0.1714994
-0.1662259
-0.16322233
-0.15960886
-0.15884819
-0.15435324
-0.15276183
-0.1486359
-0.1461797
-0.14264486
-0.13977727
-0.13642893
-0.1328442
-0.12961395
-0.12674085
-0.12381777
-0.12106966
-0.11818495
-0.1150583
-0.11264309
-0.10915949
-0.10645167
-0.10311374
-0.10048533
-0.097564767
-0.095030589
-0.092364653
-0.089947096
-0.087386789
-0.084995259
-0.082243124
-0.079656006
-0.076585846
-0.074434119
-0.071040586
-0.068744665
-0.065658672
-0.063644152
-0.060834686
-0.059327393
-0.057042978
-0.05572698
-0.053454688
-0.051515999
-0.049821267
-0.048270273
-0.046858877
-0.045637834
-0.044629561
-0.043745824
-0.043023164
-0.042308833
-0.041571616
-0.040520834
-0.03953778
-0.038282962
-0.037085501
-0.035700973
-0.034335044
-0.032831846
-0.031366208
-0.029792557
-0.028346206
-0.026814827
-0.025409166
-0.02396657
-0.022612245
-0.021265083
-0.019938066
-0.018648105
-0.017403321
-0.016192762
-0.015039123
-0.013971275
-0.01302808
-0.01226969
-0.011764882
-0.011594568
-0.011814684
-0.012479236
-0.013624312
-0.015283826
-0.017477317
-0.020246168
-0.023600005
-0.027630281
-0.032279469
-0.037646849
-0.043378297
-0.049406651
-0.055356139
-0.060930015
-0.065691796
-0.069280955
-0.071330107
-0.071648723
-0.070183982
-0.06722503
-0.06321067
-0.058809098
-0.054707589
-0.051673652
-0.050230301
-0.050655244
-0.052885188
-0.056647244
-0.061537538
-0.067138782
-0.073107071
-0.079163922
-0.085188085
-0.091151528
-0.097094475
-0.10304769
-0.10909109
-0.11530033
-0.12172314
-0.12832984
-0.13510727
-0.14205367
-0.1491121
-0.15616314
-0.16313274
-0.16994663
-0.17653069
-0.1827662
-0.18856229
-0.19384281
-0.19856013
-0.20263798
-0.20602966
-0.20866777
-0.21057265
-0.21171131
-0.21212214
-0.21169613
-0.2105764
-0.20876383
-0.20639119
-0.20338577
-0.19989956
-0.19596591
-0.19174106
-0.18715229
-0.18230973
-0.1771622
-0.17178288
-0.16619174
-0.16053686
-0.15471526
-0.14897818
-0.1431721
-0.13754309
-0.13165895
-0.12596343
-0.12003354
-0.11437387
-0.10840313
-0.10267658
-0.096772763
-0.09118607
-0.085415454
-0.079884038
-0.074323539
-0.069032539
-0.063707927
-0.058528245
-0.053320396
-0.048110571
-0.04276297
-0.037180874
-0.031438642
-0.025358647
-0.019161037
-0.012596258
-0.0060056607
0.00081460405
0.007480005
0.014179722
0.020714705
0.027161029
0.033333827
0.039254464
0.044975708
0.050499417
0.055836201
0.060982193
0.06590693
0.07063401
0.075190385
0.079589754
0.083832897
0.08795593
0.091978758
0.095919702
0.099776662
0.10357631
0.10731923
0.11101012
0.11463286
0.11820029
0.12171004
0.12517764
0.12860724
0.13201842
0.13540333
0.1387612
0.14207649
0.14535221
0.14857365
0.1517417
0.15485264
0.15791526
0.16091235
0.16383939
0.16670147
0.16955237
0.17232091
0.17499761
0.17758823
0.18013682
0.18260026
0.18501678
0.18735467
0.18962663
0.19181707
0.19390209
0.19589249
0.19773309
0.19944764
0.20096384
0.20227219
0.20335055
0.20415651
0.20465309
0.2048676
0.20486753
0.20480555
0.20489291
0.20532003
0.20619515
0.20739471
0.2085758
0.20945312
0.20994272
0.20971419
0.20875646
0.20702547
0.20450377
0.20127312
0.19731672
0.19270494
0.18734501
0.18136614
0.17470327
0.16761353
0.15998321
0.15222071
0.14420733
0.13633797