y,k
0.44811458,1e-10
0.44853872,4.5127628e-09
0.44897673,6.3511115e-10
0.44942898,2.2563253e-10
0.44989591,2.369086e-10
0.45037802,3.5546935e-10
0.45087578,5.3054337e-10
0.45138972,7.6127223e-10
0.45192035,1.0597013e-09
0.45246821,1.445671e-09
0.45303387,1.9493179e-09
0.4536179,2.6139402e-09
0.4542209,3.5006796e-09
0.45484349,4.6966937e-09
0.4554863,6.32828e-09
0.45614998,8.5816242e-09
0.45683523,1.173637e-08
0.45754272,1.622146e-08
0.4582732,2.2709643e-08
0.45902739,3.2278858e-08
0.45980608,4.668857e-08
0.46061006,6.8850571e-08
0.46144015,1.0360496e-07
0.46229719,1.5896292e-07
0.46318206,2.4798156e-07
0.46409567,3.9151262e-07
0.46503894,6.2200883e-07
0.46601284,9.8581349e-07
0.46701837,1.5505504e-06
0.46805654,2.4144138e-06
0.46912841,3.7122494e-06
0.47023509,5.6219614e-06
0.4713777,8.3691869e-06
0.4725574,1.2231184e-05
0.4737754,1.7538082e-05
0.47503293,2.4670365e-05
0.47633129,3.4052988e-05
0.4776718,4.6146216e-05
0.47905581,6.14362e-05
0.48048475,8.0425397e-05
0.48196006,0.00010361183
0.48348326,0.00013145823
0.48505589,0.00016436847
0.48667956,0.00020265421
0.48835591,0.00024648468
0.49008666,0.00029586656
0.49187358,0.00035064557
0.49371847,0.00041051117
0.49562322,0.00047502145
0.49758976,0.00054364288
0.4996201,0.0006157961
0.5017163,0.00069089992
0.5038805,0.00076840663
0.5061149,0.00084782456
0.50842177,0.00092872991
0.51080345,0.0010107716
0.51326237,0.0010936691
0.51580103,0.0011772051
0.518422,0.0012612168
0.52112796,0.0013455874
0.52392164,0.0014302373
0.52680589,0.001515117
0.52978363,0.0016002005
0.53285789,0.00168548
0.53603179,0.0017709626
0.53930855,0.0018566661
0.54269148,0.0019426171
0.54618404,0.0020288493
0.54978974,0.0021154016
0.55351226,0.0022023177
0.55735535,0.0022896452
0.56132292,0.0023774347
0.56541898,0.0024657399
0.56964768,0.0025546171
0.57177824,0.0025982992
0.57401358,0.0026441463
0.57852108,0.0027343901
0.5831745,0.0028253923
0.58797853,0.0029172192
0.59293802,0.0030099399
0.59805799,0.0031036265
0.60334361,0.0031983544
0.60880021,0.003294203
0.6144333,0.0033912561
0.62024856,0.003489603
0.62625185,0.0035893391
0.63244922,0.0036905674
0.63884691,0.0037934006
0.64545136,0.0038979624
0.65226923,0.0040043916
0.65930735,0.0041128446
0.66657282,0.0042235018
0.67407292,0.0043365738
0.6818152,0.0044523114
0.68980741,0.0045710207
0.69805757,0.0046930826
0.70657395,0.0048189843
0.71536509,0.0049493641
0.72443978,0.0050850788
0.73380709,0.0052273811
0.74347641,0.0053782402
0.75345737,0.0055407258
0.76375996,0.0057192869
0.77439444,0.0059197791
0.78537141,0.0061487732
0.79670181,0.0064135789
0.80839692,0.0067256529
0.82046836,0.0071081318
0.83292813,0.0076072739
0.84578859,0.008309235
0.85906251,0.0093419253
0.87276303,0.010814442
0.88690372,0.012706087
0.90149857,0.014820956
0.91656199,0.016883499
0.93210885,0.018681583
0.94815449,0.020133813
0.96471471,0.02126846
0.9818058,0.022178163
0.99944456,0.022992041
1.0176483,0.023857912
1.0364349,0.024904934
1.0558227,0.026191603
1.0758308,0.027692
1.0964785,0.029323806
1.1177862,0.030987624
1.1397745,0.032596459
1.1624649,0.034088745
1.1858794,0.035428896
1.2100408,0.036599755
1.2349723,0.037591814
1.2606983,0.038397501
1.2872435,0.039013048
1.3146335,0.039439374
1.3209797,0.039493698
1.3428965,0.03967738
1.3720585,0.039737364
1.4021469,0.039628858
1.4331904,0.0393321
1.4652188,0.0388461
1.4982627,0.038192389
1.5323536,0.037380327
1.567524,0.036420469
1.6038071,0.035325945
1.6412376,0.034112303
1.6798508,0.032797224
1.7196831,0.031400283
1.7607723,0.029954783
1.8018234,0.028520687
1.8415466,0.027153097
1.8799862,0.02587268
1.9171848,0.024677781
1.9531836,0.023561245
1.9880224,0.022520572
2.0217396,0.021555327
2.0543721,0.020662062
2.0859558,0.019835358
2.116525,0.01906937
2.1377609,0.018559134
2.1461135,0.018358559
2.1747538,0.017697808
2.2024761,0.017082377
2.2293103,0.016508011
2.2552856,0.015970891
2.2804299,0.0154676
2.3047701,0.014995102
2.3283326,0.014550711
2.3511425,0.014132058
2.3732242,0.013737071
2.3946014,0.013363943
2.4152968,0.013010531
2.4353325,0.012674196
2.4547298,0.012352446
2.4735093,0.012043107
2.4916909,0.011744328
2.5092939,0.011454609
2.526337,0.011172785
2.542838,0.010898005
2.5588145,0.010629718
2.5742833,0.010367645
2.5892607,0.010111749
2.6037624,0.0098621933
2.6178038,0.0096193005
2.6313994,0.0093835007
2.6445637,0.0091552875
2.6573104,0.0089351737
2.6696528,0.008723654
2.6816039,0.0085211747
2.6931762,0.0083281126
2.7043818,0.0081447618
2.7152323,0.0079713283
2.7257392,0.007807932
2.7359133,0.0076546122
2.7457652,0.0075113379
2.7553053,0.0073780185
2.7645435,0.0072545149
2.7734893,0.0071406508
2.782152,0.0070362214
2.7905407,0.0069410003
2.7986642,0.0068547452
2.8065307,0.0067772009
2.8141485,0.0067081006
2.8215254,0.0066471667
2.8286692,0.0065941099
2.8355872,0.0065486286
2.8422866,0.0065104072
2.8487743,0.0064791158
2.8550571,0.0064544091
2.8611414,0.0064359261
2.8670335,0.0064232909
2.8727395,0.0064161131
2.8782654,0.0064139771
2.8836168,0.0064163885
2.8887992,0.0064230311
2.893818,0.0064335663
2.8986784,0.0064474732
2.9033854,0.0064643188
2.9079439,0.0064836836
2.9123585,0.0065051586
2.9166338,0.0065283481
2.9207742,0.0065528736
2.924784,0.0065783768
2.9286673,0.0066045227
2.9324281,0.0066310017
2.9360703,0.0066575331
2.9395976,0.0066838669
2.9430137,0.0067097864
2.946322,0.0067351102
2.949526,0.0067596944
2.952629,0.0067834341
2.9556341,0.0068062653
2.9585445,0.0068281654
2.9613632,0.0068491543
2.964093,0.0068692936
2.9667367,0.0068887126
2.9692971,0.0069075536
2.9717768,0.0069259579
2.9741784,0.0069441206
2.9765042,0.0069622727
2.9787568,0.0069806429
2.9809383,0.0069994229
2.9830511,0.0070186975
2.9850974,0.0070383423
2.9870791,0.007057964
2.9889984,0.0070768509
2.9908573,0.0070939262
2.9926575,0.0071077109
2.9944011,0.0071163007
2.9960897,0.0071174026
2.9977251,0.007108378
2.999309,0.007086115
3.000843,0.007047154
3.0023287,0.0069881028
3.0037676,0.0069055963
3.0051611,0.0067959776
3.0065108,0.0066559774
3.0078179,0.0064823639
3.0090839,0.0062713376
3.01031,0.006019371
3.0114975,0.0057236088
3.0126476,0.0053819045
3.0137614,0.0049926893
3.0148402,0.0045552767
3.015885,0.0040730118
3.0168969,0.0035563979
3.017877,0.0030225354
3.0188261,0.0024928763
3.0197454,0.0019918679
3.0206357,0.0015407963
3.021498,0.0011533868
3.0223332,0.00083593161
3.023142,0.00058708016
3.0239254,0.00040040538
3.0246841,0.00026633642
3.0254189,0.00017387669
3.0261306,0.00011231409
3.0268199,7.2433649e-05
3.0274874,4.7051001e-05
3.028134,3.0997855e-05
3.0287602,2.0791455e-05
3.0293667,1.4201261e-05
3.029954,9.8494543e-06
3.0305229,6.9033103e-06
3.0310739,4.8594891e-06
3.0316075,3.4085854e-06
3.0321244,2.3567514e-06
3.0326249,1.5747353e-06
3.0331097,9.5611705e-07
3.0335792,4.7324246e-07
3.034034,1.8689837e-07
3.0344744,8.740095e-08
3.034901,1.6097081e-07
3.0353141,1.1022868e-06
3.0357143,1e-10
