/*--------------------------------*- C++ -*----------------------------------*\
| =========                 |                                                 |
| \\      /  F ield         | OpenFOAM: The Open Source CFD Toolbox           |
|  \\    /   O peration     | Version:  2.4.0                                 |
|   \\  /    A nd           | Web:      www.OpenFOAM.org                      |
|    \\/     M anipulation  |                                                 |
\*---------------------------------------------------------------------------*/
FoamFile
{
    version     2.0;
    format      ascii;
    class       volScalarField;
    location    "360";
    object      nut;
}
// * * * * * * * * * * * * * * * * * * * * * * * * * * * * * * * * * * * * * //

dimensions      [0 2 -1 0 0 0 0];

internalField   nonuniform List<scalar> 
32000
(
1.2436222e-08
3.8753452e-09
8.3789096e-09
2.9735356e-09
1.8953574e-09
2.2823171e-10
4.3487707e-10
2.3430149e-10
2.0234427e-10
1.4467156e-10
1.244935e-10
1.084676e-10
9.6232561e-11
8.5145488e-11
7.538993e-11
6.7438565e-11
6.1529588e-11
5.7622421e-11
5.5315886e-11
5.3615039e-11
5.2226585e-11
5.1036542e-11
4.9448144e-11
4.717931e-11
4.4042796e-11
4.001393e-11
3.5247993e-11
3.5313775e-11
4.3528187e-11
5.2144931e-11
6.0789054e-11
6.9098383e-11
7.6810527e-11
8.3912315e-11
9.072296e-11
9.7737568e-11
1.0532155e-10
1.1327232e-10
1.2129351e-10
1.2919337e-10
1.367862e-10
1.4381641e-10
1.5043451e-10
1.5631098e-10
1.6265229e-10
1.6847927e-10
1.8199614e-10
1.9042177e-10
1.8386674e-10
1.7551586e-10
1.6444051e-10
1.5372237e-10
1.4373124e-10
1.3585872e-10
1.3034287e-10
1.2728967e-10
1.2642632e-10
1.2706309e-10
1.2843334e-10
1.2983336e-10
1.3058953e-10
1.3033613e-10
1.29123e-10
1.2717537e-10
1.2472437e-10
1.2222995e-10
1.2049433e-10
1.2047995e-10
1.2307932e-10
1.2893933e-10
1.3805757e-10
1.4955457e-10
1.616112e-10
1.7130373e-10
1.7583464e-10
1.7207684e-10
1.5769806e-10
1.3200767e-10
9.6783609e-11
5.6387558e-11
6.3869804e-11
9.6917998e-11
1.1492665e-10
1.1333008e-10
8.8347468e-11
4.3063588e-11
1.0783803e-10
1.7361049e-10
2.2894837e-10
2.7063761e-10
2.9668154e-10
3.0670415e-10
3.0367743e-10
2.9271609e-10
2.7949455e-10
2.6759102e-10
2.5712858e-10
2.459963e-10
2.3156994e-10
2.1185977e-10
1.8555888e-10
1.5208048e-10
1.1147852e-10
6.4436707e-11
7.2281518e-11
1.3095436e-10
1.9498806e-10
2.6345045e-10
3.3552462e-10
4.1051217e-10
4.8773314e-10
5.6651568e-10
6.4625262e-10
7.2631811e-10
8.061056e-10
8.850282e-10
9.6242861e-10
1.0376454e-09
1.1099853e-09
1.1786432e-09
1.2427302e-09
1.3013434e-09
1.3535608e-09
1.3984237e-09
1.4349511e-09
1.4620869e-09
1.4786387e-09
1.483217e-09
1.4739517e-09
1.4486809e-09
1.4049506e-09
1.3398359e-09
1.2498941e-09
1.1315903e-09
9.8221804e-10
8.0329429e-10
6.0635552e-10
4.2326902e-10
2.9328073e-10
2.2255614e-10
1.9340822e-10
1.9165986e-10
2.0159283e-10
2.0560771e-10
1.9200864e-10
1.6383084e-10
1.53334e-10
1.994134e-10
2.7732213e-10
3.1440568e-10
2.6357813e-10
1.3416043e-10
1.1228176e-10
2.2620683e-10
2.9795786e-10
3.4037758e-10
3.337721e-10
2.9255545e-10
2.3395704e-10
1.7723323e-10
1.3645845e-10
1.2078659e-10
1.3053905e-10
1.550121e-10
1.7990235e-10
1.9608807e-10
1.9768552e-10
1.7280065e-10
1.1256926e-10
4.5939818e-11
1.2572311e-10
2.0017365e-10
2.6185823e-10
3.0702209e-10
3.3346406e-10
3.4189535e-10
3.3538207e-10
3.1789004e-10
2.9124154e-10
2.5754395e-10
2.1846814e-10
1.7478839e-10
1.2727105e-10
7.6428017e-11
4.5338861e-11
1.2718945e-10
2.2562154e-10
3.4862531e-10
5.1186299e-10
7.2668989e-10
1.0384245e-09
1.374729e-09
1.9980694e-09
1.7860305e-09
3.0083031e-09
1.821805e-09
4.1551701e-09
4.0754884e-09
9.15507e-09
4.0121868e-09
6.8317211e-09
3.7570809e-09
5.3506842e-09
2.6755475e-09
1.8745942e-09
2.8081097e-10
5.1505879e-10
4.0959791e-10
2.8193014e-10
2.2165068e-10
1.8458563e-10
1.6167467e-10
1.416394e-10
1.237023e-10
1.0739043e-10
9.3706985e-11
8.3079336e-11
7.5595168e-11
7.0668336e-11
6.6788055e-11
6.3455892e-11
6.0478152e-11
5.7011905e-11
5.2666013e-11
4.7196767e-11
4.0576774e-11
3.2963583e-11
3.2389114e-11
4.1916983e-11
5.1798831e-11
6.1442602e-11
7.0343889e-11
7.8153633e-11
8.4859916e-11
9.087928e-11
9.6860719e-11
1.0330703e-10
1.1002183e-10
1.1668291e-10
1.2314155e-10
1.2928698e-10
1.349511e-10
1.404088e-10
1.4544595e-10
1.5141627e-10
1.5750153e-10
1.7174046e-10
1.8021963e-10
1.7376663e-10
1.6559144e-10
1.5490426e-10
1.4467105e-10
1.3522957e-10
1.2787502e-10
1.2278772e-10
1.2002124e-10
1.1928018e-10
1.1989111e-10
1.2113604e-10
1.2236695e-10
1.2296389e-10
1.2259693e-10
1.2132896e-10
1.1938808e-10
1.1700057e-10
1.1459662e-10
1.1292065e-10
1.1287001e-10
1.1528384e-10
1.2077176e-10
1.2933957e-10
1.401739e-10
1.5158492e-10
1.6084341e-10
1.65332e-10
1.6213191e-10
1.4906886e-10
1.25495e-10
9.3085751e-11
5.603613e-11
6.2862155e-11
9.4068001e-11
1.113798e-10
1.1028774e-10
8.7273325e-11
4.5258781e-11
1.0358265e-10
1.6491248e-10
2.1662834e-10
2.5575846e-10
2.803482e-10
2.9007165e-10
2.8765171e-10
2.7780351e-10
2.6574451e-10
2.5477773e-10
2.4502849e-10
2.3456078e-10
2.2095506e-10
2.0237491e-10
1.7763114e-10
1.4620553e-10
1.0818951e-10
6.4450699e-11
7.3187456e-11
1.2746439e-10
1.8692831e-10
2.5058306e-10
3.1766018e-10
3.8751439e-10
4.5952119e-10
5.330639e-10
6.0758472e-10
6.8250799e-10
7.5727417e-10
8.3134059e-10
9.0409809e-10
9.7493101e-10
1.043192e-09
1.108127e-09
1.1689017e-09
1.2246673e-09
1.2745542e-09
1.3176539e-09
1.3530329e-09
1.3796821e-09
1.3964569e-09
1.4019989e-09
1.3944583e-09
1.3717337e-09
1.3314027e-09
1.2705643e-09
1.1857948e-09
1.0735552e-09
9.3113487e-10
7.600098e-10
5.7161975e-10
3.9734777e-10
2.7433544e-10
2.0750299e-10
1.8046156e-10
1.7979166e-10
1.9013731e-10
1.9467475e-10
1.8206892e-10
1.5528862e-10
1.4551514e-10
1.9050243e-10
2.6670464e-10
3.035588e-10
2.5362026e-10
1.2465739e-10
1.0644289e-10
2.2057457e-10
2.9382938e-10
3.3830826e-10
3.3344798e-10
2.9297949e-10
2.3388384e-10
1.7590665e-10
1.3437337e-10
1.2016452e-10
1.3476433e-10
1.6693223e-10
2.0045623e-10
2.2401202e-10
2.291152e-10
1.9987352e-10
1.251536e-10
4.5639161e-11
1.5101195e-10
2.5075024e-10
3.3498883e-10
3.9811986e-10
4.3690683e-10
4.5210781e-10
4.4751565e-10
4.2779124e-10
3.950899e-10
3.5193258e-10
3.003092e-10
2.4105754e-10
1.7498025e-10
1.0305951e-10
5.7921983e-11
1.812769e-10
3.2789637e-10
5.0801483e-10
7.3869233e-10
1.0371471e-09
1.4238063e-09
1.892197e-09
2.4035794e-09
2.5392592e-09
2.7201909e-09
1.3868616e-09
3.0594041e-09
3.1968001e-09
5.5690166e-09
4.0839573e-09
5.8910481e-10
7.9850099e-10
7.3885795e-10
8.9846411e-10
7.2810731e-10
1.2481736e-10
2.8306526e-10
3.6242435e-10
2.0243416e-10
1.8122039e-10
1.4788739e-10
1.3284139e-10
1.1667692e-10
1.0235794e-10
8.8725521e-11
7.6986875e-11
6.7524488e-11
6.053689e-11
5.56575e-11
5.1723658e-11
4.8319819e-11
4.5279673e-11
4.199357e-11
3.8188272e-11
3.3714001e-11
2.856314e-11
2.283594e-11
2.212245e-11
2.7917582e-11
3.3795748e-11
3.9293533e-11
4.4059592e-11
4.7868239e-11
5.0725382e-11
5.2901172e-11
5.4793731e-11
5.6721336e-11
5.8638145e-11
6.0414537e-11
6.2026726e-11
6.3476027e-11
6.4740215e-11
6.6007929e-11
6.7244375e-11
6.9095612e-11
7.1259444e-11
7.6866916e-11
7.9526183e-11
7.6089535e-11
7.2118942e-11
6.7287124e-11
6.2783195e-11
5.8715277e-11
5.5580907e-11
5.342013e-11
5.2224408e-11
5.1849374e-11
5.200876e-11
5.2411916e-11
5.2802291e-11
5.2935464e-11
5.2684349e-11
5.2080295e-11
5.1220626e-11
5.0199136e-11
4.9186427e-11
4.847471e-11
4.8416718e-11
4.9344404e-11
5.1497182e-11
5.4876093e-11
5.9157505e-11
6.3669844e-11
6.7330624e-11
6.9102991e-11
6.7839465e-11
6.269632e-11
5.3437503e-11
4.0749926e-11
2.6352503e-11
2.9104496e-11
4.1469056e-11
4.8395175e-11
4.8046659e-11
3.9044076e-11
2.2631402e-11
4.5283641e-11
6.9440582e-11
8.9802544e-11
1.0524987e-10
1.1495219e-10
1.1881205e-10
1.1790967e-10
1.1409972e-10
1.0941121e-10
1.051258e-10
1.0128701e-10
9.7137995e-11
9.1737207e-11
8.4369519e-11
7.4587285e-11
6.219583e-11
4.7241155e-11
3.0146393e-11
3.3645283e-11
5.4753631e-11
7.7981524e-11
1.0289106e-10
1.2918053e-10
1.5660178e-10
1.8491625e-10
2.1388854e-10
2.433059e-10
2.7294832e-10
3.0260137e-10
3.3205657e-10
3.6107874e-10
3.8942886e-10
4.1685438e-10
4.4305933e-10
4.677142e-10
4.9048195e-10
5.1101542e-10
5.2894955e-10
5.4390691e-10
5.5547724e-10
5.6319225e-10
5.6648377e-10
5.6457297e-10
5.5656483e-10
5.4142323e-10
5.1789666e-10
4.8449611e-10
4.3966023e-10
3.821604e-10
3.1252377e-10
2.3551898e-10
1.6429215e-10
1.1415717e-10
8.7016056e-11
7.6195944e-11
7.6209044e-11
8.0765546e-11
8.3002494e-11
7.8185777e-11
6.7440087e-11
6.3600495e-11
8.2515751e-11
1.1497844e-10
1.3158701e-10
1.1125167e-10
5.6041931e-11
4.8912955e-11
9.9841382e-11
1.3375901e-10
1.5534424e-10
1.5525086e-10
1.3892429e-10
1.1342649e-10
8.7607505e-11
6.9044384e-11
6.390296e-11
7.4079897e-11
9.4549382e-11
1.1675242e-10
1.3379668e-10
1.3964647e-10
1.2372479e-10
7.8586676e-11
3.0847348e-11
1.0004371e-10
1.6722315e-10
2.2558339e-10
2.7074563e-10
3.0020963e-10
3.1426011e-10
3.1514466e-10
3.0535105e-10
2.8605427e-10
2.5863154e-10
2.2414551e-10
1.8288948e-10
1.3510823e-10
8.1534223e-11
4.7380613e-11
1.4552065e-10
2.6111364e-10
4.0063903e-10
5.7231519e-10
7.8926045e-10
1.033835e-09
1.3648932e-09
1.5000674e-09
1.7898075e-09
1.2183763e-09
4.5454762e-10
1.0325705e-09
1.0292915e-09
7.2524251e-10
9.005379e-10
5.684881e-12
3.2466122e-11
1.5850492e-11
1.486126e-10
1.5869451e-10
2.9778833e-11
9.6933211e-11
2.1012867e-10
9.6022451e-11
1.0057283e-10
8.1049291e-11
7.5495594e-11
6.6854882e-11
5.917593e-11
5.1334143e-11
4.4320559e-11
3.8387341e-11
3.3760554e-11
3.0358996e-11
2.7583878e-11
2.5197158e-11
2.3096323e-11
2.0987984e-11
1.8746172e-11
1.6313809e-11
1.3691331e-11
1.0916458e-11
1.0286914e-11
1.2328261e-11
1.4298015e-11
1.5974821e-11
1.7217412e-11
1.7953017e-11
1.8209585e-11
1.8110368e-11
1.7815575e-11
1.7463295e-11
1.7091011e-11
1.6690562e-11
1.6281643e-11
1.5886694e-11
1.5519492e-11
1.523883e-11
1.5051e-11
1.5098188e-11
1.5331266e-11
1.6254329e-11
1.6466409e-11
1.558047e-11
1.4658168e-11
1.3631606e-11
1.2708825e-11
1.1899217e-11
1.1284794e-11
1.0863726e-11
1.0626523e-11
1.0540234e-11
1.0549148e-11
1.0600163e-11
1.0647642e-11
1.0648374e-11
1.0580545e-11
1.045116e-11
1.0279079e-11
1.0081938e-11
9.8901265e-12
9.7549348e-12
9.7383306e-12
9.8991786e-12
1.0279102e-11
1.0877495e-11
1.1635711e-11
1.243243e-11
1.3073725e-11
1.3374538e-11
1.3133386e-11
1.2205919e-11
1.0557884e-11
8.3200992e-12
5.8147046e-12
6.3394766e-12
8.5316275e-12
9.7681908e-12
9.7164326e-12
8.1338979e-12
5.2735921e-12
9.2992542e-12
1.3580153e-11
1.7175895e-11
1.9910819e-11
2.1616393e-11
2.2287179e-11
2.21216e-11
2.1450401e-11
2.0627077e-11
1.9873105e-11
1.9193028e-11
1.8452833e-11
1.7488441e-11
1.6174469e-11
1.4439802e-11
1.2251316e-11
9.6176484e-12
6.631209e-12
7.1790125e-12
1.0838404e-11
1.48919e-11
1.9251232e-11
2.3863425e-11
2.868625e-11
3.3679532e-11
3.8803694e-11
4.4023053e-11
4.9300618e-11
5.4600206e-11
5.9886561e-11
6.5119566e-11
7.0258149e-11
7.5258601e-11
8.0069185e-11
8.4631664e-11
8.8885927e-11
9.2769573e-11
9.6216424e-11
9.9157523e-11
1.0151739e-10
1.0320923e-10
1.0412696e-10
1.041208e-10
1.0301034e-10
1.0058962e-10
9.6606522e-11
9.0756671e-11
8.2713431e-11
7.2206559e-11
5.930133e-11
4.4896571e-11
3.1516536e-11
2.2107889e-11
1.7044356e-11
1.5045073e-11
1.5071645e-11
1.5969839e-11
1.6471784e-11
1.5672813e-11
1.3738959e-11
1.304959e-11
1.6646332e-11
2.299566e-11
2.6558427e-11
2.2954645e-11
1.2171483e-11
1.0665996e-11
2.1205207e-11
2.8526479e-11
3.3558222e-11
3.4349676e-11
3.1794067e-11
2.7095946e-11
2.2024482e-11
1.8386656e-11
1.8020101e-11
2.2001449e-11
2.948533e-11
3.8197561e-11
4.5777689e-11
4.9672756e-11
4.5606828e-11
3.0271429e-11
1.3237773e-11
4.0885854e-11
6.9035529e-11
9.4683518e-11
1.1558922e-10
1.3046352e-10
1.3926067e-10
1.4272344e-10
1.4142067e-10
1.3562769e-10
1.256607e-10
1.1171767e-10
9.3648603e-11
7.1254526e-11
4.4771679e-11
2.8003762e-11
8.1744318e-11
1.4459403e-10
2.1884794e-10
3.0556679e-10
4.1116163e-10
5.0838722e-10
6.5806347e-10
6.1359287e-10
7.9688172e-10
3.4804715e-10
8.4482642e-11
2.1273048e-10
1.7959123e-10
1.5034794e-11
3.8060282e-11
4.6640257e-15
1.6532043e-13
2.1095965e-14
1.1909816e-11
2.1862434e-11
4.8922789e-12
2.340738e-11
7.9466579e-11
3.124777e-11
3.83675e-11
3.0856314e-11
2.9972488e-11
2.684042e-11
2.3982276e-11
2.0776878e-11
1.7766364e-11
1.5077289e-11
1.2871037e-11
1.1191991e-11
9.8291713e-12
8.6817919e-12
7.7001408e-12
6.7869667e-12
5.9002135e-12
5.0234921e-12
4.1540136e-12
3.2972091e-12
2.980858e-12
3.3197179e-12
3.6063938e-12
3.7841618e-12
3.8287918e-12
3.7385605e-12
3.5365498e-12
3.2629012e-12
2.960748e-12
2.6675307e-12
2.4014288e-12
2.1635356e-12
1.9562694e-12
1.7806403e-12
1.6358008e-12
1.5248883e-12
1.4460421e-12
1.4097546e-12
1.4117306e-12
1.4844018e-12
1.4883318e-12
1.4048313e-12
1.3225784e-12
1.2359876e-12
1.1604747e-12
1.0959861e-12
1.0482583e-12
1.0164599e-12
9.9921349e-13
9.9337649e-13
9.9433393e-13
9.9802418e-13
1.0010628e-12
1.0002038e-12
9.9385926e-13
9.8274278e-13
9.6851155e-13
9.526584e-13
9.3755162e-13
9.271123e-13
9.2612264e-13
9.3923778e-13
9.6967533e-13
1.0173621e-12
1.077604e-12
1.1406355e-12
1.1909765e-12
1.2138716e-12
1.1936092e-12
1.1193515e-12
9.8917318e-13
8.1439336e-13
6.2264825e-13
6.6948338e-13
8.4393847e-13
9.4387281e-13
9.4157027e-13
8.1804829e-13
5.9803596e-13
9.1946071e-13
1.2593506e-12
1.5436367e-12
1.7614456e-12
1.8962232e-12
1.9489193e-12
1.9359724e-12
1.8838355e-12
1.819845e-12
1.760927e-12
1.7070553e-12
1.6475658e-12
1.5697186e-12
1.4635452e-12
1.324704e-12
1.1506564e-12
9.4206032e-13
7.0873899e-13
7.4274826e-13
1.0243224e-12
1.3396807e-12
1.6802457e-12
2.0417299e-12
2.4208804e-12
2.8146594e-12
3.2200865e-12
3.6344836e-12
4.0550688e-12
4.4791122e-12
4.9039475e-12
5.3265164e-12
5.7436625e-12
6.152004e-12
6.5474991e-12
6.9255445e-12
7.2813432e-12
7.6098799e-12
7.9057979e-12
8.1634829e-12
8.376761e-12
8.5385038e-12
8.6401308e-12
8.6683762e-12
8.6071224e-12
8.4380572e-12
8.1384617e-12
7.680477e-12
7.0335474e-12
6.1713006e-12
5.0962504e-12
3.8848359e-12
2.7548955e-12
1.9615687e-12
1.5378106e-12
1.3714955e-12
1.373479e-12
1.449756e-12
1.4971224e-12
1.4397714e-12
1.2869486e-12
1.2292352e-12
1.5181333e-12
2.04791e-12
2.3726979e-12
2.1025479e-12
1.2000091e-12
1.0442649e-12
1.942631e-12
2.5743798e-12
3.0511037e-12
3.2103921e-12
3.1094073e-12
2.8176084e-12
2.4698675e-12
2.2460374e-12
2.3911549e-12
3.142112e-12
4.5221572e-12
6.3018692e-12
8.1038973e-12
9.3712405e-12
9.1468262e-12
6.555238e-12
3.3064701e-12
9.6066171e-12
1.6551429e-11
2.3370501e-11
2.9378541e-11
3.4162957e-11
3.7651911e-11
3.9965016e-11
4.1045179e-11
4.0855402e-11
3.9339885e-11
3.6401915e-11
3.1825247e-11
2.5344273e-11
1.6909243e-11
1.1713555e-11
3.2082753e-11
5.5879198e-11
8.3337752e-11
1.1340244e-10
1.4803186e-10
1.7155304e-10
2.1387729e-10
1.6998369e-10
2.2139973e-10
7.1972245e-11
1.1866275e-11
2.9884779e-11
1.811151e-11
2.2771122e-14
1.9618469e-13
1.2428128e-17
8.5683722e-17
1.3447011e-17
3.4971092e-13
1.9146528e-12
6.5328903e-13
4.4522971e-12
1.9242287e-11
7.3896159e-12
1.0130142e-11
8.2474345e-12
8.2860374e-12
7.489291e-12
6.7192311e-12
5.7780177e-12
4.8545591e-12
3.995608e-12
3.2723407e-12
2.7196981e-12
2.2834033e-12
1.9299476e-12
1.6401222e-12
1.3896669e-12
1.1665288e-12
9.6513853e-13
7.8211753e-13
6.158966e-13
5.307578e-13
5.4008803e-13
5.3935774e-13
5.2169339e-13
4.8681299e-13
4.3786114e-13
3.8058739e-13
3.2150465e-13
2.6624196e-13
2.1887266e-13
1.8056677e-13
1.4998679e-13
1.2597855e-13
1.0747372e-13
9.3501802e-14
8.3500621e-14
7.6864599e-14
7.3740547e-14
7.3922915e-14
7.9015343e-14
8.0749684e-14
7.763928e-14
7.4390255e-14
7.0857391e-14
6.7800319e-14
6.5231607e-14
6.3427304e-14
6.2341158e-14
6.1891559e-14
6.1908924e-14
6.2168462e-14
6.2492011e-14
6.2736857e-14
6.2757176e-14
6.2484343e-14
6.1966311e-14
6.1299645e-14
6.0567644e-14
5.9887511e-14
5.9448751e-14
5.9487871e-14
6.0245635e-14
6.1887523e-14
6.4413778e-14
6.7585564e-14
7.0895816e-14
7.3542361e-14
7.4756159e-14
7.3730775e-14
6.9937157e-14
6.3314504e-14
5.4500733e-14
4.5074293e-14
4.7879181e-14
5.7111578e-14
6.2562968e-14
6.2641096e-14
5.6377181e-14
4.5421429e-14
6.2137145e-14
7.988099e-14
9.4701785e-14
1.0623186e-13
1.1336623e-13
1.162277e-13
1.1568418e-13
1.1312386e-13
1.099298e-13
1.0694475e-13
1.0414423e-13
1.0096942e-13
9.6770772e-14
9.101409e-14
8.357959e-14
7.4338681e-14
6.332054e-14
5.1242703e-14
5.2529945e-14
6.6742759e-14
8.2912011e-14
1.0046195e-13
1.1915133e-13
1.3880761e-13
1.592738e-13
1.8039693e-13
2.0203966e-13
2.2405953e-13
2.4631631e-13
2.6867282e-13
2.9097136e-13
3.1304829e-13
3.3472786e-13
3.5579935e-13
3.7602132e-13
3.9514071e-13
4.1289196e-13
4.2899108e-13
4.4314007e-13
4.550116e-13
4.6422999e-13
4.7031063e-13
4.7249484e-13
4.6991943e-13
4.6156586e-13
4.4616316e-13
4.2214361e-13
3.8777549e-13
3.4155358e-13
2.835777e-13
2.1808297e-13
1.5699562e-13
1.1420781e-13
9.1485457e-14
8.2606276e-14
8.2640402e-14
8.6634787e-14
8.9246668e-14
8.6499505e-14
7.8729495e-14
7.5340941e-14
8.88556e-14
1.1462768e-13
1.3100219e-13
1.1790284e-13
7.3116996e-14
6.3060647e-14
1.0366165e-13
1.3067608e-13
1.5284683e-13
1.6311842e-13
1.6390282e-13
1.5742655e-13
1.491404e-13
1.4842399e-13
1.7156895e-13
2.4049044e-13
3.6874216e-13
5.5229718e-13
7.666445e-13
9.5493972e-13
1.0067043e-12
8.0092393e-13
4.8596849e-13
1.2884534e-12
2.2682813e-12
3.3237957e-12
4.3443444e-12
5.2577558e-12
6.0466758e-12
6.7233248e-12
7.2430578e-12
7.577432e-12
7.6851552e-12
7.5087495e-12
6.9555988e-12
5.9021746e-12
4.2827274e-12
3.3631006e-12
8.5841875e-12
1.4760438e-11
2.1762759e-11
2.8963946e-11
3.6681756e-11
4.0192706e-11
4.7414225e-11
3.4044221e-11
3.9126871e-11
1.2290748e-11
1.6074507e-12
2.8576083e-12
9.8785445e-13
1.3093576e-17
9.2809112e-17
4.5940578e-22
3.2100216e-19
4.5088232e-23
1.9385852e-15
9.5241136e-14
7.0188223e-14
6.9679275e-13
3.2625072e-12
1.4051369e-12
2.0079555e-12
1.6779857e-12
1.7074686e-12
1.5471475e-12
1.3796281e-12
1.1687244e-12
9.5833159e-13
7.6088512e-13
5.9581291e-13
4.7254194e-13
3.7914616e-13
3.068213e-13
2.5015607e-13
2.0410409e-13
1.65759e-13
1.3350141e-13
1.061259e-13
8.2862272e-14
6.8653229e-14
6.4334939e-14
5.9397597e-14
5.3301791e-14
4.6273381e-14
3.8799625e-14
3.1476619e-14
2.4827742e-14
1.9209756e-14
1.4796023e-14
1.1496534e-14
9.0438816e-15
7.2365215e-15
5.9197891e-15
4.9748725e-15
4.3257967e-15
3.9129312e-15
3.7230892e-15
3.7474371e-15
4.0736341e-15
4.2412152e-15
4.1403972e-15
4.0211591e-15
3.8833391e-15
3.7649057e-15
3.6674842e-15
3.6043785e-15
3.5731461e-15
3.5692777e-15
3.5838441e-15
3.6058697e-15
3.6275974e-15
3.6431688e-15
3.6462181e-15
3.6339506e-15
3.6093401e-15
3.5777716e-15
3.543755e-15
3.5130866e-15
3.4948937e-15
3.5007291e-15
3.5427894e-15
3.6293199e-15
3.7604227e-15
3.9241149e-15
4.094525e-15
4.230952e-15
4.2942145e-15
4.2435615e-15
4.0537943e-15
3.7237749e-15
3.2882934e-15
2.8334795e-15
2.98806e-15
3.463303e-15
3.7535051e-15
3.7711937e-15
3.467845e-15
2.9394171e-15
3.7824851e-15
4.6856612e-15
5.436495e-15
6.0288374e-15
6.3936e-15
6.5414221e-15
6.5168791e-15
6.3914345e-15
6.2334059e-15
6.0835562e-15
5.9393914e-15
5.7724067e-15
5.550475e-15
5.2454399e-15
4.8577583e-15
4.3808744e-15
3.8150131e-15
3.2058577e-15
3.2579792e-15
3.9581069e-15
4.7659858e-15
5.647222e-15
6.5888699e-15
7.582129e-15
8.6191799e-15
9.6924532e-15
1.079516e-14
1.1920262e-14
1.3060804e-14
1.4209971e-14
1.5359897e-14
1.6502365e-14
1.7628519e-14
1.872769e-14
1.9787568e-14
2.0795176e-14
2.1736842e-14
2.2597902e-14
2.3362945e-14
2.4015036e-14
2.4534867e-14
2.4892571e-14
2.5048075e-14
2.4955881e-14
2.4560236e-14
2.3791132e-14
2.2561767e-14
2.0775672e-14
1.8348702e-14
1.5284703e-14
1.1814718e-14
8.5816754e-15
6.3233553e-15
5.1268856e-15
4.658928e-15
4.6559669e-15
4.8620117e-15
5.006375e-15
4.8808487e-15
4.4958574e-15
4.3102344e-15
4.9403782e-15
6.1853171e-15
7.0066604e-15
6.3844493e-15
4.2034468e-15
3.6316728e-15
5.3898629e-15
6.4692081e-15
7.4278833e-15
7.9582381e-15
8.175901e-15
8.1775696e-15
8.2056958e-15
8.7407897e-15
1.0713787e-14
1.5578589e-14
2.4648833e-14
3.8457445e-14
5.6113958e-14
7.3769236e-14
8.2832022e-14
7.2733237e-14
5.294508e-14
1.2586922e-13
2.2296672e-13
3.3612376e-13
4.5446294e-13
5.7031111e-13
6.8204684e-13
7.9177153e-13
8.9257339e-13
9.798502e-13
1.0462873e-12
1.0806512e-12
1.0641992e-12
9.6868993e-13
7.7520088e-13
6.9287263e-13
1.648693e-12
2.8135916e-12
4.1337627e-12
5.4472316e-12
6.755873e-12
7.1911594e-12
7.9663135e-12
5.585507e-12
5.2072313e-12
1.8175324e-12
2.0755378e-13
1.6498593e-13
2.3505193e-14
4.7047547e-22
2.2994437e-19
1.0782791e-27
3.7948812e-24
9.6052726e-30
2.7771843e-17
2.1848289e-15
5.7383275e-15
8.7769065e-14
4.5277674e-13
2.2723354e-13
3.3323972e-13
2.8846047e-13
2.9467773e-13
2.6709741e-13
2.3566794e-13
1.962527e-13
1.5699685e-13
1.205127e-13
9.0668611e-14
6.9049223e-14
5.3292089e-14
4.1557085e-14
3.2706436e-14
2.5832382e-14
2.0376362e-14
1.600598e-14
1.2470598e-14
9.6034652e-15
7.7215934e-15
6.8177471e-15
5.9335996e-15
5.024169e-15
4.1187382e-15
3.2621192e-15
2.4986815e-15
1.85844e-15
1.353961e-15
9.8224579e-16
9.9245955e-16
1.0211985e-15
1.0461069e-15
1.0660486e-15
1.0796366e-15
1.0850795e-15
1.0806398e-15
1.0632637e-15
1.0304996e-15
9.6561379e-16
8.9607924e-16
8.5031983e-16
8.1618598e-16
7.896286e-16
7.6809522e-16
7.5031554e-16
7.3541316e-16
7.2279893e-16
7.1210641e-16
7.0296541e-16
6.9497014e-16
6.8781819e-16
6.8131151e-16
6.7533811e-16
6.6983939e-16
6.6477187e-16
6.6007335e-16
6.5571247e-16
6.5174215e-16
6.4825247e-16
6.4529348e-16
6.4288974e-16
6.4089714e-16
6.3917063e-16
6.3755375e-16
6.3582006e-16
6.3383203e-16
6.3151116e-16
6.287564e-16
6.2565114e-16
6.2232257e-16
6.1895721e-16
6.1581323e-16
6.1316049e-16
6.1135434e-16
6.1082689e-16
6.1175874e-16
6.1430114e-16
6.1768403e-16
6.2011857e-16
6.1996567e-16
6.1833001e-16
6.1615947e-16
6.1371458e-16
6.1117812e-16
6.0876676e-16
6.0676194e-16
6.051091e-16
6.0371485e-16
6.0244229e-16
6.0120622e-16
6.0002335e-16
5.9897557e-16
5.9814893e-16
5.9759361e-16
5.9731516e-16
5.9729078e-16
5.9750441e-16
5.9794569e-16
5.9860201e-16
5.994633e-16
6.0051952e-16
6.0176298e-16
6.0318957e-16
6.047961e-16
6.0658102e-16
6.0854498e-16
6.1172953e-16
6.6485718e-16
7.1829998e-16
7.7169982e-16
8.2466805e-16
8.7673098e-16
9.2733523e-16
9.7589284e-16
1.0217804e-15
1.0643247e-15
1.1028153e-15
1.1364687e-15
1.164384e-15
1.1848719e-15
1.1960798e-15
1.1957219e-15
1.1809505e-15
1.1481428e-15
1.0927523e-15
1.0096493e-15
8.9426537e-16
7.4648145e-16
7.0077961e-16
6.9449248e-16
6.870898e-16
6.8149791e-16
6.7914853e-16
6.8132551e-16
6.8826522e-16
6.9902404e-16
7.1068255e-16
7.2182606e-16
7.3495325e-16
7.5527531e-16
7.8541469e-16
8.2388729e-16
8.6529411e-16
9.0419375e-16
9.3575509e-16
9.812465e-16
1.0285699e-15
1.053492e-15
1.0650265e-15
1.0678171e-15
1.0642836e-15
1.0562799e-15
1.0441677e-15
1.0267077e-15
1.0030261e-15
1.6313872e-15
2.651806e-15
4.0436738e-15
5.5544899e-15
6.5504488e-15
6.1976519e-15
5.1554657e-15
1.1509562e-14
2.0493844e-14
3.1575676e-14
4.3838359e-14
5.6606602e-14
6.9815862e-14
8.383936e-14
9.7957759e-14
1.1171863e-13
1.2431116e-13
1.3432527e-13
1.3920505e-13
1.3462547e-13
1.1767769e-13
1.1667975e-13
2.6319125e-13
4.4790418e-13
6.5943806e-13
8.6817443e-13
1.0619779e-12
1.1140423e-12
1.1589178e-12
8.0293527e-13
6.1721765e-13
2.2434885e-13
2.3820253e-14
4.6206783e-15
1.7984068e-16
3.796398e-27
1.5112009e-24
2.7717841e-31
1.4317677e-29
5.4381106e-27
4.1703453e-22
3.6606631e-17
3.336089e-16
8.5485021e-15
5.3593162e-14
3.078573e-14
4.7468818e-14
4.285617e-14
4.4393137e-14
4.0492484e-14
3.5512356e-14
2.9157147e-14
2.2802471e-14
1.6941857e-14
1.2251341e-14
8.9590221e-15
6.6481322e-15
4.9910387e-15
3.7869977e-15
2.8899653e-15
2.2079962e-15
1.6852315e-15
1.2802692e-15
9.6543308e-16
7.5316789e-16
6.9998062e-16
7.3153873e-16
7.6494115e-16
8.0011861e-16
8.3702552e-16
8.7565643e-16
9.1567679e-16
9.5561898e-16
9.9296013e-16
1.0266922e-15
1.056989e-15
1.0833808e-15
1.1047174e-15
1.1195906e-15
1.1261738e-15
1.1226924e-15
1.1060481e-15
1.0737967e-15
1.0093312e-15
9.383243e-16
8.8998488e-16
8.5388924e-16
8.2582687e-16
8.0317812e-16
7.845742e-16
7.6908621e-16
7.5608004e-16
7.4518123e-16
7.359814e-16
7.2799797e-16
7.2086759e-16
7.1436034e-16
7.0835752e-16
7.0280687e-16
6.9767176e-16
6.9288616e-16
6.8842357e-16
6.8437117e-16
6.8086562e-16
6.7798706e-16
6.7577051e-16
6.7403454e-16
6.7259113e-16
6.7123421e-16
6.6966003e-16
6.6768695e-16
6.6521312e-16
6.6210097e-16
6.5845132e-16
6.5445142e-16
6.5035829e-16
6.4652445e-16
6.4332136e-16
6.4122521e-16
6.408365e-16
6.4240726e-16
6.461195e-16
6.5097668e-16
6.5456985e-16
6.5462969e-16
6.5264565e-16
6.4991681e-16
6.467881e-16
6.435081e-16
6.4036227e-16
6.3772732e-16
6.3554615e-16
6.336988e-16
6.3200576e-16
6.3035624e-16
6.2877539e-16
6.2737452e-16
6.2626865e-16
6.2552341e-16
6.2514115e-16
6.2508599e-16
6.2533738e-16
6.2588034e-16
6.2669693e-16
6.2777279e-16
6.2909395e-16
6.3064965e-16
6.3243378e-16
6.3444161e-16
6.3667052e-16
6.391208e-16
6.4179344e-16
6.4469271e-16
6.4782484e-16
6.5119685e-16
6.5481891e-16
6.5870293e-16
6.6286088e-16
6.6730936e-16
6.7207123e-16
6.7717445e-16
6.8265661e-16
6.8856682e-16
6.9493513e-16
7.0166985e-16
7.088015e-16
7.1630627e-16
7.2411287e-16
7.3206169e-16
7.3982688e-16
7.4679448e-16
7.5186549e-16
7.5324557e-16
7.4876551e-16
7.383676e-16
7.263052e-16
7.1670101e-16
7.1138091e-16
7.1191153e-16
7.1859044e-16
7.3017933e-16
7.4271776e-16
7.5428612e-16
7.6808276e-16
7.9087882e-16
8.2609878e-16
8.7172962e-16
9.2012959e-16
9.6296726e-16
9.9265861e-16
1.0327514e-15
1.0744864e-15
1.095494e-15
1.1035882e-15
1.1039887e-15
1.0992101e-15
1.0910451e-15
1.0795431e-15
1.062772e-15
1.0389931e-15
1.0064898e-15
9.6528659e-16
9.1650444e-16
8.6331026e-16
8.1172449e-16
7.6687924e-16
7.3151694e-16
9.4597943e-16
1.7132025e-15
2.7130657e-15
3.8803892e-15
5.167436e-15
6.585861e-15
8.1962068e-15
9.9376747e-15
1.1782091e-14
1.3659354e-14
1.5422131e-14
1.677203e-14
1.7137272e-14
1.6159738e-14
1.7316859e-14
3.7939734e-14
6.4553281e-14
9.5105575e-14
1.2464354e-13
1.4963248e-13
1.5298902e-13
1.4863134e-13
9.8409783e-14
6.4517104e-14
2.1897614e-14
2.3348127e-15
4.5482983e-17
2.2263355e-17
3.0333871e-31
2.3279813e-30
4.0187488e-31
7.0654986e-31
4.4648449e-31
8.2458568e-29
2.7286175e-18
9.524672e-17
6.1317025e-16
5.1842444e-15
3.3835766e-15
5.6200429e-15
5.3379644e-15
5.6730626e-15
5.2437422e-15
4.595604e-15
3.7301914e-15
2.8539516e-15
2.0494261e-15
1.4203022e-15
9.9416072e-16
7.0712675e-16
5.426301e-16
5.6205048e-16
5.8162071e-16
6.0156746e-16
6.2236459e-16
6.4442526e-16
6.6887115e-16
6.9636171e-16
7.2659584e-16
7.5892441e-16
7.9310592e-16
8.2907793e-16
8.668283e-16
9.0641476e-16
9.4758706e-16
9.8895501e-16
1.0279767e-15
6.7064393e-16
4.4614079e-16
3.0969228e-16
2.2562054e-16
1.7319341e-16
1.4042868e-16
1.205224e-16
1.0951119e-16
1.0611929e-16
1.0896828e-16
1.0970251e-16
1.083277e-16
1.070988e-16
1.0621912e-16
1.056514e-16
1.0533815e-16
1.05243e-16
1.0533033e-16
1.0560308e-16
1.0602434e-16
1.0650195e-16
1.0695688e-16
1.0734654e-16
1.0766382e-16
1.0792205e-16
1.0813485e-16
1.082997e-16
1.0842604e-16
1.0856578e-16
1.0878908e-16
1.0914491e-16
1.0965491e-16
1.1025991e-16
1.1089033e-16
1.1146346e-16
1.1185523e-16
1.1199392e-16
1.1184222e-16
1.1135205e-16
1.105843e-16
1.09619e-16
1.0858032e-16
1.0762657e-16
1.0692025e-16
1.0667138e-16
1.0712178e-16
1.0835841e-16
1.1044682e-16
1.1296579e-16
1.1486873e-16
1.1527278e-16
1.1418579e-16
1.1364544e-16
1.1248977e-16
1.1124522e-16
1.1005277e-16
1.0906656e-16
1.0826764e-16
1.0759684e-16
1.0696887e-16
1.0633272e-16
1.0569957e-16
1.0489727e-16
1.0444561e-16
1.0429101e-16
1.0408062e-16
1.039838e-16
1.0399402e-16
1.0410481e-16
1.0430851e-16
1.045985e-16
1.0496805e-16
1.0541177e-16
1.0592605e-16
1.0650777e-16
1.0715482e-16
1.0786608e-16
1.086409e-16
1.0947985e-16
1.1038412e-16
1.113553e-16
1.1239606e-16
1.1350958e-16
1.1469897e-16
1.159687e-16
1.173254e-16
1.1877761e-16
1.2033744e-16
1.2202116e-16
1.238392e-16
1.2574186e-16
1.2773862e-16
1.2981188e-16
1.3192182e-16
1.3398907e-16
1.3586146e-16
1.3726374e-16
1.3771863e-16
1.3647238e-16
1.3260519e-16
1.2592847e-16
1.1820099e-16
1.1156977e-16
1.0673966e-16
1.0400689e-16
1.0328323e-16
1.0404387e-16
1.0485152e-16
1.0487678e-16
1.0501029e-16
1.0737685e-16
1.1308407e-16
1.2130786e-16
1.2910905e-16
1.3259791e-16
1.28097e-16
1.1825279e-16
1.0881638e-16
1.0873058e-16
1.1661562e-16
1.3418037e-16
1.6530967e-16
2.1731063e-16
3.0409399e-16
4.4771145e-16
6.8454551e-16
1.0435003e-15
9.9935445e-16
9.4648672e-16
8.8855461e-16
8.3281357e-16
7.8576173e-16
7.5037088e-16
7.2109413e-16
6.9542995e-16
6.7276275e-16
6.5285869e-16
6.353132e-16
6.1915533e-16
6.8970221e-16
8.7018019e-16
1.0756967e-15
1.3033705e-15
1.5423244e-15
1.7649679e-15
1.9078776e-15
1.935768e-15
2.2211616e-15
4.7949775e-15
8.1657971e-15
1.2003192e-14
1.5560304e-14
1.8186166e-14
1.7862539e-14
1.6046625e-14
9.8458454e-15
5.6180785e-15
1.5925757e-15
1.9081159e-16
7.1604314e-18
1.1797017e-20
2.082847e-27
6.9880236e-31
5.7654994e-31
2.1145724e-24
3.7472695e-22
3.7368051e-25
1.5798977e-21
2.9815662e-17
1.1285151e-16
3.9566587e-16
2.9365937e-16
5.371692e-16
5.4236817e-16
5.9757079e-16
5.6352405e-16
4.9593889e-16
4.1995198e-16
4.4841569e-16
4.7583326e-16
5.0081955e-16
5.2329406e-16
5.4440984e-16
5.6495478e-16
5.8521372e-16
6.0562752e-16
6.2641379e-16
6.4804346e-16
6.7094387e-16
6.9621291e-16
7.2447824e-16
7.5550349e-16
7.8863222e-16
8.2361106e-16
5.6028297e-16
3.6702342e-16
2.3695677e-16
1.5216932e-16
9.8677629e-17
6.6220487e-17
4.6979802e-17
3.5326809e-17
2.8107681e-17
2.3535251e-17
2.0569628e-17
1.8591541e-17
1.7235286e-17
1.6247843e-17
1.5539841e-17
1.477683e-17
1.3726529e-17
1.2849974e-17
1.2194339e-17
1.1699255e-17
1.1318652e-17
1.1023167e-17
1.0793928e-17
1.0617121e-17
1.0486615e-17
1.0393233e-17
1.0322139e-17
1.0260979e-17
1.0202735e-17
1.0145269e-17
1.0089119e-17
1.0034969e-17
9.981708e-18
9.9297681e-18
9.8846114e-18
9.8537837e-18
9.8422814e-18
9.8516423e-18
9.8750009e-18
9.9042956e-18
9.9300601e-18
9.9382694e-18
9.9209676e-18
9.8741126e-18
9.792229e-18
9.6814317e-18
9.5510342e-18
9.4145249e-18
9.2889119e-18
9.1915133e-18
9.1442752e-18
9.1737366e-18
9.2893152e-18
9.4970095e-18
9.7539273e-18
9.9485353e-18
9.9777505e-18
9.8788966e-18
9.7920714e-18
9.6611226e-18
9.5213953e-18
9.3873974e-18
9.2751872e-18
9.1834317e-18
9.1061846e-18
9.0347857e-18