/*--------------------------------*- C++ -*----------------------------------*\
| =========                 |                                                 |
| \\      /  F ield         | OpenFOAM: The Open Source CFD Toolbox           |
|  \\    /   O peration     | Version:  2.4.0                                 |
|   \\  /    A nd           | Web:      www.OpenFOAM.org                      |
|    \\/     M anipulation  |                                                 |
\*---------------------------------------------------------------------------*/
FoamFile
{
    version     2.0;
    format      ascii;
    class       volVectorField;
    location    "360";
    object      U;
}
// * * * * * * * * * * * * * * * * * * * * * * * * * * * * * * * * * * * * * //

dimensions      [0 1 -1 0 0 0 0];

internalField   nonuniform List<vector> 
32000
(
(0.0063056861 3.1391086e-05 -1.0472655e-21)
(0.0018613348 4.6527461e-07 2.6009565e-23)
(0.0051228479 -0.00014185864 -2.9310033e-23)
(0.0030273958 -0.00023498766 1.1174886e-21)
(0.0018107353 -0.0002752966 -5.0999953e-21)
(-0.00041587756 9.6692833e-05 -4.9628364e-20)
(-0.001632699 0.00057740096 2.9898487e-20)
(-0.001772254 0.00083873087 2.2923779e-20)
(-0.0014186729 0.00081462895 2.1269267e-19)
(-0.0011670736 0.00076548341 -1.1834407e-19)
(-0.0010257852 0.00073881863 -1.2859312e-19)
(-0.00093158543 0.00071692102 -2.9797234e-19)
(-0.00083218959 0.00067127664 -3.0942604e-19)
(-0.0007262574 0.00060478846 -1.9061858e-19)
(-0.0006190258 0.0005253797 1.6332123e-21)
(-0.00052270225 0.00044671896 -1.0451164e-19)
(-0.00044430563 0.00037790167 -1.5000386e-20)
(-0.00038689937 0.00032435301 8.862527e-20)
(-0.00034922076 0.00028818074 1.0138487e-19)
(-0.00031955657 0.00025972941 1.5265629e-19)
(-0.00029435597 0.00023573374 9.6399897e-20)
(-0.00027224451 0.00021495414 -9.0560429e-20)
(-0.00024584282 0.00019149045 -3.4338388e-19)
(-0.0002117299 0.00016272429 1.0046122e-19)
(-0.00016751149 0.00012691771 1.349747e-19)
(-0.00011268558 8.3640123e-05 -3.5736847e-19)
(-4.7471963e-05 3.3006672e-05 2.0166908e-19)
(2.9171266e-05 -2.5819116e-05 2.2638332e-19)
(0.0001139714 -8.9536217e-05 -1.8663888e-19)
(0.00020222598 -0.00015338074 4.513613e-19)
(0.0002898367 -0.00021309715 -5.6205464e-20)
(0.00037261096 -0.00026458795 3.1569826e-19)
(0.00044750103 -0.00030492614 4.2717883e-19)
(0.00051441841 -0.00033351875 -2.5474262e-19)
(0.0005772906 -0.00035228859 -4.9734096e-19)
(0.00064235671 -0.00036419396 2.2512334e-19)
(0.00071459278 -0.0003716962 -7.7354142e-20)
(0.00079187607 -0.00037398769 -1.827605e-19)
(0.00087054213 -0.00036860765 2.7532871e-19)
(0.00094839883 -0.00035421972 -9.3936238e-20)
(0.001023437 -0.00033013069 -7.9198423e-20)
(0.0010927468 -0.00029577093 -2.6589495e-19)
(0.0011580386 -0.00025222952 -7.9817812e-20)
(0.0012150216 -0.00019938983 1.970223e-20)
(0.001276345 -0.00014001409 -1.2367919e-19)
(0.0013276593 -7.2717874e-05 -4.2182913e-21)
(0.0014452935 -1.0020495e-05 1.6974651e-21)
(0.0014907069 -3.4809425e-07 -1.0883716e-24)
(0.0013959748 -8.1266875e-08 1.2885689e-23)
(0.0012925894 3.9797763e-08 -1.3113194e-23)
(0.0011694169 7.6526793e-08 7.693854e-24)
(0.0010547838 5.1404708e-08 -1.9637136e-24)
(0.00095084102 -2.8389319e-08 -1.2466506e-23)
(0.00086947427 -1.4759926e-07 7.4657159e-24)
(0.00081191129 -2.8578261e-07 -1.1485541e-25)
(0.00077846515 -4.244651e-07 2.6382663e-24)
(0.00076614827 -5.4380857e-07 -2.6595841e-24)
(0.00076830846 -6.3360535e-07 8.9376284e-24)
(0.00077767313 -6.9106652e-07 -4.3698199e-25)
(0.00078772032 -7.1696365e-07 -8.037659e-24)
(0.00079243235 -7.1676161e-07 2.1100081e-24)
(0.00078862744 -7.0262666e-07 -1.309578e-24)
(0.00077673278 -6.8508716e-07 -2.3342086e-24)
(0.00075862425 -6.6902144e-07 -1.5801398e-26)
(0.00073625139 -6.587223e-07 -1.8665222e-24)
(0.00071360373 -6.6374188e-07 -1.5889388e-24)
(0.0006975791 -6.9272042e-07 2.6258113e-24)
(0.00069628305 -7.4813506e-07 -1.0231917e-24)
(0.00071704143 -8.2516402e-07 3.5160245e-24)
(0.00076499532 -9.0890493e-07 -1.5559252e-25)
(0.00083979495 -9.6985799e-07 2.5353436e-25)
(0.00093380416 -9.7816295e-07 -5.3418467e-25)
(0.001031649 -8.9806501e-07 1.2538482e-25)
(0.0011090094 -7.105195e-07 -1.7562181e-25)
(0.0011429117 -4.0883543e-07 -3.959544e-25)
(0.0011077435 -8.5539889e-09 -1.3711266e-25)
(0.00098464175 4.4635367e-07 1.3541886e-25)
(0.0007683872 8.773971e-07 -1.1018887e-26)
(0.00047387751 1.1972965e-06 3.2697286e-26)
(0.00013580148 1.3280104e-06 6.0858171e-27)
(-0.00019638014 1.2149573e-06 5.1524657e-27)
(-0.00046340792 8.4789034e-07 4.5965011e-25)
(-0.00060610609 2.9376205e-07 -3.3173857e-25)
(-0.00059035837 -3.8790159e-07 -1.1227148e-25)
(-0.00038555501 -1.1643026e-06 -8.0751818e-26)
(1.4254185e-05 -1.8476777e-06 2.8470355e-25)
(0.00055660646 -2.1592041e-06 -1.9908613e-25)
(0.0010920192 -2.0503619e-06 -4.2745655e-26)
(0.0015397314 -1.7112485e-06 7.620416e-26)
(0.0018745612 -1.2716236e-06 1.1678244e-25)
(0.0020812457 -7.6997981e-07 1.5538194e-25)
(0.0021571296 -2.9976492e-07 -3.2853395e-25)
(0.0021271127 4.0993419e-08 4.5104238e-25)
(0.0020333945 2.0744295e-07 -9.7150312e-25)
(0.0019225718 2.2147329e-07 9.4717258e-26)
(0.0018238629 1.7548763e-07 8.1533366e-26)
(0.0017381327 1.6025711e-07 -3.3675522e-26)
(0.0016480365 2.2038732e-07 1.2356239e-25)
(0.0015321548 3.5402508e-07 2.6079463e-25)
(0.001374277 5.4429954e-07 -2.2153299e-26)
(0.0011636374 7.7230153e-07 -7.4848712e-26)
(0.00089520951 1.0192958e-06 -1.9615684e-25)
(0.00056891264 1.2696554e-06 7.9823208e-25)
(0.00018766545 1.5132134e-06 2.3469494e-25)
(-0.00024453731 1.7435005e-06 5.9291424e-25)
(-0.00072338312 1.9558474e-06 2.1684734e-25)
(-0.0012437654 2.1449779e-06 1.3305506e-25)
(-0.0017998999 2.3050465e-06 -1.7956166e-24)
(-0.0023855045 2.4338292e-06 -2.5280715e-24)
(-0.0029951138 2.5302739e-06 6.8972952e-26)
(-0.0036233724 2.5913595e-06 6.6145667e-24)
(-0.0042649818 2.6160432e-06 8.4539927e-26)
(-0.004915174 2.6024325e-06 6.3058197e-25)
(-0.0055690216 2.5478872e-06 -6.1458187e-24)
(-0.0062217605 2.4512571e-06 3.0369678e-25)
(-0.0068687876 2.3089704e-06 5.3211057e-25)
(-0.0075049128 2.1183715e-06 6.6972e-24)
(-0.008124915 1.8773792e-06 -6.0182116e-24)
(-0.0087233018 1.5823154e-06 -5.5307375e-24)
(-0.0092936473 1.2298148e-06 6.27326e-24)
(-0.0098288132 8.1787289e-07 1.3498237e-25)
(-0.010321501 3.4579512e-07 -4.6264237e-24)
(-0.010764219 -1.8569223e-07 5.6856012e-25)
(-0.01114912 -7.7461011e-07 6.3495754e-25)
(-0.01146813 -1.418129e-06 3.9296089e-24)
(-0.011712475 -2.1123458e-06 -5.2217333e-25)
(-0.011872172 -2.8501206e-06 -2.9660211e-25)
(-0.011935586 -3.6522857e-06 -5.7889311e-25)
(-0.011886965 -4.51248e-06 -7.1651625e-25)
(-0.011707815 -5.4418295e-06 -8.4021552e-25)
(-0.011377028 -6.4181441e-06 5.1575913e-24)
(-0.010869221 -7.4332411e-06 -7.5995157e-24)
(-0.010154141 -8.4667223e-06 1.0074454e-23)
(-0.0092000113 -9.4664743e-06 -6.1284715e-24)
(-0.007980735 -1.0316325e-05 8.0524346e-24)
(-0.0065040952 -1.0755725e-05 -6.3487979e-17)
(-0.0048608678 -1.0341051e-05 -7.0819648e-17)
(-0.0033152066 -8.7207234e-06 -1.0860279e-23)
(-0.0022074214 -6.3491947e-06 8.1412299e-17)
(-0.0016017539 -4.355041e-06 8.5432184e-17)
(-0.0013489617 -3.1002486e-06 4.7125681e-23)
(-0.0013314855 -2.2881153e-06 -1.2453675e-23)
(-0.0014190506 -2.0219589e-06 2.4411724e-23)
(-0.001458785 -2.1626387e-06 -1.2900165e-23)
(-0.0013450414 -2.4134e-06 -2.8676965e-23)
(-0.0010992945 -2.0692267e-06 5.4328658e-23)
(-0.0010105295 -6.1993012e-07 -4.2560072e-23)
(-0.0014435237 9.6702781e-07 5.5830873e-23)
(-0.002189216 6.9031689e-07 -1.0094966e-22)
(-0.0025756005 -1.9333131e-06 5.6841046e-23)
(-0.0021356655 -5.2059041e-06 1.3832478e-23)
(-0.00090631632 -6.9924799e-06 -2.3430919e-25)
(0.00066835729 -6.4675196e-06 -3.7230355e-25)
(0.0018733731 7.8254987e-06 -6.6410383e-21)
(0.0027029954 0.00014502517 -4.6352241e-19)
(0.0032186841 0.00035269577 -7.0485057e-20)
(0.0031840175 0.00052380671 1.407497e-19)
(0.0027449622 0.00060113164 -1.1490814e-19)
(0.0020930031 0.00057146901 6.8186805e-19)
(0.0014518682 0.00047503024 5.0617204e-19)
(0.00098907333 0.00037848477 -1.0241354e-18)
(0.00081700065 0.00035639502 2.2313448e-19)
(0.00094577976 0.00045683103 4.3109308e-19)
(0.0012534335 0.00065912687 4.1191925e-19)
(0.0015708454 0.00089177065 -1.4072879e-18)
(0.0017874169 0.0010846305 -6.3038195e-19)
(0.0018331063 0.0011728914 -1.3930991e-19)
(0.0015674881 0.0010428563 -1.5237519e-18)
(0.00087984886 0.00059437248 -1.4106423e-18)
(-6.3031115e-05 -7.183935e-05 7.7625331e-19)
(-0.0010470598 -0.00079957121 -1.3546673e-18)
(-0.0019497533 -0.0014872269 -2.2425714e-20)
(-0.0026973257 -0.0020656501 1.7443103e-18)
(-0.003247572 -0.0024912353 -8.8477823e-19)
(-0.0035805032 -0.0027492514 3.0339304e-19)
(-0.0037074357 -0.0028549042 8.5034798e-19)
(-0.0036627202 -0.0028391612 -2.0835797e-18)
(-0.0034864669 -0.002723899 -1.8746874e-19)
(-0.0031989915 -0.002523435 -1.578187e-18)
(-0.0028217008 -0.0022514006 -1.9753225e-19)
(-0.0023715999 -0.0019173642 -4.5208025e-20)
(-0.0018552615 -0.0015223852 8.3364207e-19)
(-0.0012804422 -0.0010687886 1.2523575e-18)
(-0.00065037443 -0.00055433922 3.0357083e-19)
(0.0002905167 0.00024090236 -1.5914144e-18)
(0.0013319603 0.0011152672 -4.2555149e-19)
(0.0025314657 0.0020832301 8.7556983e-19)
(0.0039657365 0.0031626662 -8.7574873e-19)
(0.005752468 0.004376516 2.110658e-19)
(0.0079921099 0.0056900334 2.6241508e-19)
(0.010804419 0.0070075919 5.5693055e-19)
(0.014116278 0.0080269958 -2.8273825e-19)
(0.017559501 0.0082625353 4.6862983e-20)
(0.019476375 0.0069156256 5.2054198e-20)
(0.018389425 0.0044910043 -2.8033556e-21)
(0.014990547 0.0022677203 5.959812e-20)
(0.011217274 0.00088815097 2.7617333e-20)
(0.007051236 0.00020174226 -2.8242893e-21)
(0.005891533 2.6549686e-06 1.395154e-22)
(0.0012122471 -5.9514478e-06 3.9720019e-22)
(0.018894878 8.966673e-05 2.4897267e-21)
(0.0063937808 1.112263e-05 -5.3216699e-23)
(0.015537338 -0.00043833982 6.9810443e-22)
(0.0094692684 -0.00069969339 -3.0587737e-21)
(0.0057885208 -0.00083323949 1.4407717e-21)
(-0.00088932972 0.00026492753 9.090901e-20)
(-0.0047239987 0.0017156739 1.9304582e-20)
(-0.0052857879 0.0025228228 -8.360272e-20)
(-0.0042782994 0.002465088 -1.3297595e-19)
(-0.0035294066 0.0023223704 6.4620123e-20)
(-0.0031013666 0.0022428247 2.1364108e-19)
(-0.0028147397 0.0021761988 3.7755455e-19)
(-0.002515226 0.0020382748 6.3638858e-19)
(-0.0021972806 0.0018374992 4.6572206e-20)
(-0.0018757726 0.0015976722 -1.2866166e-19)
(-0.0015864756 0.0013597317 3.10333e-19)
(-0.0013505827 0.0011512481 4.879874e-19)
(-0.0011769436 0.00098860569 4.8285015e-20)
(-0.0010615061 0.00087799672 2.6403711e-19)
(-0.0009696683 0.00079054571 1.6403204e-19)
(-0.0008902232 0.0007161687 4.6070005e-19)
(-0.00081913793 0.00065106394 -2.705524e-19)
(-0.00073480059 0.00057763419 4.4465919e-19)
(-0.00062708069 0.00048802055 1.1532822e-19)
(-0.00048926107 0.00037719557 1.9194071e-19)
(-0.00031997541 0.00024394532 1.2855871e-19)
(-0.00012000614 8.8622119e-05 -7.7236337e-19)
(0.00011320905 -9.0957269e-05 -8.4587959e-19)
(0.00037000785 -0.00028480372 3.611979e-19)
(0.00063651185 -0.00047859336 -6.3448258e-19)
(0.00090049876 -0.00065946447 -1.0954456e-19)
(0.001149523 -0.00081507479 -1.1231132e-19)
(0.0013745226 -0.00093663901 -2.3766897e-19)
(0.0015752376 -0.0010224429 2.7447879e-19)
(0.0017634318 -0.0010783676 1.1783581e-19)
(0.0019578417 -0.0011133926 -5.8426274e-19)
(0.0021735093 -0.0011349373 3.2395754e-19)
(0.0024044641 -0.0011406761 1.7549217e-19)
(0.0026399313 -0.0011232605 2.2715022e-20)
(0.0028732624 -0.0010786361 -6.5962e-20)
(0.003098355 -0.0010046693 1.3784572e-19)
(0.0033064311 -0.00089968599 3.4011918e-19)
(0.0035022202 -0.00076686249 3.0138776e-20)
(0.0036730523 -0.00060608216 -3.3159592e-20)
(0.0038556428 -0.00042539146 6.5796766e-20)
(0.0040085598 -0.00022173971 4.3713243e-21)
(0.0043509947 -3.1226772e-05 3.9390873e-22)
(0.0044828962 1.0163731e-06 -6.4887395e-24)
(0.0042063477 3.6244794e-06 2.1233352e-23)
(0.0038976808 4.2623259e-06 -2.4424275e-23)
(0.0035268766 4.4481947e-06 6.3381677e-24)
(0.0031772053 4.1026521e-06 1.7275318e-23)
(0.0028563851 3.4539388e-06 -1.3192829e-23)
(0.0026001014 2.5646176e-06 9.0207719e-25)
(0.0024129965 1.6379717e-06 8.6844248e-25)
(0.0022970056 7.6720766e-07 2.8324983e-24)
(0.0022446948 8.2723497e-08 -1.2371097e-24)
(0.0022373117 -3.374326e-07 2.5837278e-24)
(0.0022534304 -4.956795e-07 -1.5474869e-23)
(0.0022733137 -4.1369772e-07 1.6496078e-23)
(0.0022788654 -1.5474405e-07 2.0046322e-24)
(0.0022604836 1.551628e-07 -1.3487009e-23)
(0.002219202 4.1907679e-07 4.388003e-24)
(0.0021602797 6.0925825e-07 -2.5692377e-24)
(0.0020891181 6.8802162e-07 6.3122989e-24)
(0.0020173529 5.6178231e-07 -2.0895479e-24)
(0.0019656236 1.4982839e-07 -3.184787e-24)
(0.0019585214 -5.5856662e-07 6.5444303e-25)
(0.0020184368 -1.5094439e-06 4.1999939e-24)
(0.0021612484 -2.5527492e-06 -1.8889234e-26)
(0.0023866458 -3.4359117e-06 -4.7865926e-24)
(0.0026727391 -3.8730852e-06 4.4475759e-24)
(0.0029747522 -3.5403747e-06 -3.5484466e-24)
(0.0032209876 -2.2922888e-06 1.9827494e-24)
(0.0033436601 -1.0032811e-07 -8.0636894e-25)
(0.0032662681 2.9479465e-06 2.2682956e-25)
(0.0029308309 6.4572062e-06 1.6403706e-25)
(0.002317953 9.7761739e-06 4.1495984e-28)
(0.00146708 1.21389e-05 -3.3548159e-26)
(0.00047620494 1.2880064e-05 -2.0108664e-25)
(-0.00051197137 1.1519547e-05 1.369074e-25)
(-0.0013220517 7.8753588e-06 3.7316378e-25)
(-0.0017730964 2.4490568e-06 -5.624275e-25)
(-0.0017566489 -4.2129421e-06 2.5737119e-26)
(-0.0011791831 -1.1640617e-05 -9.5437192e-26)
(-1.9786287e-05 -1.8147936e-05 3.5032082e-25)
(0.0015731562 -2.0766716e-05 1.8437304e-25)
(0.0031515595 -1.8974089e-05 -1.4616318e-25)
(0.0044760293 -1.5113959e-05 3.0481815e-25)
(0.0054737485 -1.0494925e-05 -7.9600779e-25)
(0.0060987641 -5.5032655e-06 1.1095481e-24)
(0.0063412349 -9.3957317e-07 -6.5943293e-25)
(0.0062695429 2.3306909e-06 4.2507222e-25)
(0.0060025858 3.8959361e-06 -3.0677611e-25)
(0.0056740439 3.9994683e-06 2.9771051e-26)
(0.0053693522 3.5310073e-06 3.8133452e-26)
(0.0050925836 3.3839173e-06 -8.8924762e-26)
(0.0047945258 3.9851916e-06 -4.3298113e-25)
(0.0044132809 5.3060596e-06 4.3030727e-25)
(0.003901895 7.144894e-06 -5.0755465e-26)
(0.0032297462 9.286334e-06 2.6245508e-25)
(0.0023835254 1.1525027e-05 3.1942966e-25)
(0.0013647661 1.3709132e-05 -9.5088186e-25)
(0.00018379688 1.5758856e-05 3.8846712e-26)
(-0.0011463041 1.7644844e-05 3.3602333e-26)
(-0.002611993 1.9348383e-05 3.1438924e-24)
(-0.0041972151 2.0840318e-05 -4.5396361e-24)
(-0.0058840885 2.2095345e-05 1.9492229e-24)
(-0.0076534677 2.3121495e-05 -5.3667356e-24)
(-0.0094886306 2.3935658e-05 1.1779422e-23)
(-0.011373297 2.4538089e-05 -1.5783578e-23)
(-0.013291438 2.494215e-05 1.2692273e-23)
(-0.015228546 2.5154028e-05 2.651816e-24)
(-0.01716977 2.5173009e-05 -1.7829379e-24)
(-0.019100698 2.5005566e-05 -1.2455469e-23)
(-0.021007412 2.4641152e-05 7.1668877e-24)
(-0.022874388 2.4070275e-05 -4.9019081e-24)
(-0.024685974 2.3285962e-05 -6.1253189e-24)
(-0.026425768 2.226439e-05 1.4655661e-24)
(-0.028074789 2.0976655e-05 -5.2240346e-24)
(-0.029612073 1.9403867e-05 1.6194918e-23)
(-0.031016311 1.7537856e-05 -1.2208225e-23)
(-0.03226573 1.5370163e-05 2.3059959e-23)
(-0.033337579 1.2889773e-05 -5.3889927e-24)
(-0.034208465 1.0082102e-05 -2.0830601e-24)
(-0.034853021 6.9165237e-06 -1.7376538e-24)
(-0.03524245 3.3491603e-06 -2.1566431e-24)
(-0.035343093 -7.5649924e-07 3.7684273e-26)
(-0.035108624 -5.5155068e-06 3.7103418e-25)
(-0.034486056 -1.1048776e-05 1.2056708e-24)
(-0.033415031 -1.7453086e-05 -2.9235055e-25)
(-0.031823416 -2.4895963e-05 4.9161329e-24)
(-0.029626303 -3.3492558e-05 3.4292793e-24)
(-0.026735871 -4.3145335e-05 4.1171211e-24)
(-0.023083315 -5.3114056e-05 -3.7726682e-23)
(-0.018699433 -6.1148804e-05 5.5947683e-23)
(-0.013855961 -6.2390657e-05 -5.5860235e-23)
(-0.0093282463 -5.206924e-05 3.2205828e-23)
(-0.0060986221 -3.3717189e-05 3.7843702e-24)
(-0.0043391523 -1.6995946e-05 1.2246041e-23)
(-0.0036282571 -5.7691642e-06 4.5217399e-24)
(-0.0036241851 9.0393124e-07 -3.1664077e-23)
(-0.0039308664 2.0314809e-06 -3.9586577e-23)
(-0.0040923905 -1.6898201e-06 4.7289518e-23)
(-0.0037981623 -7.0799662e-06 1.3603904e-23)
(-0.0031299532 -6.7464062e-06 -5.2882669e-24)
(-0.0029433916 5.9205515e-06 -3.2527989e-23)
(-0.004270758 2.1973835e-05 3.959988e-24)
(-0.0064392164 2.1609692e-05 3.9724191e-24)
(-0.0074886705 -9.5319498e-07 -2.7787406e-23)
(-0.0061043764 -3.2301576e-05 3.4442587e-24)
(-0.0024125513 -5.4034169e-05 -6.915562e-24)
(0.0022487833 -5.4237363e-05 1.2187183e-22)
(0.0058030274 -2.1405498e-06 3.1548324e-22)
(0.0082560801 0.00042409579 -1.6964361e-20)
(0.0097698788 0.0010645746 -8.9706401e-19)
(0.009670487 0.0015995213 3.9205513e-19)
(0.0083798194 0.0018514862 -5.9336278e-19)
(0.0064583989 0.0017778501 -1.0298696e-18)
(0.0045666714 0.0014977596 -1.8869962e-18)
(0.0032053733 0.0012135229 1.6036986e-18)
(0.002704395 0.0011501782 1.7141321e-19)
(0.0030788071 0.0014503298 -2.0079245e-18)
(0.003955225 0.0020494028 -3.7265767e-19)
(0.0048374039 0.002733132 -1.1559715e-18)
(0.0054020139 0.0032897176 2.4764471e-18)
(0.0054308801 0.003518973 -5.8223173e-19)
(0.0045045675 0.0030778034 1.4569682e-18)
(0.0023348985 0.0016800718 1.307031e-18)
(-0.00053182187 -0.00035081454 -1.6331824e-18)
(-0.0034599714 -0.0025433838 2.1714542e-18)
(-0.0061106471 -0.0046008699 -6.8651914e-19)
(-0.0082815283 -0.0063214848 -2.3784523e-18)
(-0.0098605739 -0.0075797792 3.639721e-20)
(-0.010798631 -0.0083363021 -7.8045038e-19)
(-0.011135002 -0.0086392591 -3.5089802e-19)
(-0.010970571 -0.0085807477 -4.5217245e-19)
(-0.010421898 -0.0082252178 3.6662735e-19)
(-0.0095484696 -0.0076155631 -1.1835766e-18)
(-0.0084125665 -0.0067920871 1.926527e-19)
(-0.0070631041 -0.0057828036 7.974171e-19)
(-0.0055192077 -0.0045907519 -2.1773217e-18)
(-0.0038023325 -0.0032219919 -8.3852482e-19)
(-0.0019141978 -0.0016669001 -1.0444348e-18)
(0.00090742418 0.0007381365 2.5426527e-19)
(0.0040001493 0.0033678383 1.470523e-18)
(0.0075543141 0.0062743244 -8.7586589e-19)
(0.011798561 0.009509897 -6.3606077e-19)
(0.017074038 0.013138459 1.6511483e-18)
(0.023670836 0.017051574 -1.6818714e-18)
(0.031928518 0.020956301 -1.1032451e-18)
(0.041630056 0.023954827 7.6597073e-20)
(0.051696356 0.024616635 -8.4510973e-20)
(0.057441148 0.020640329 2.0574383e-19)
(0.054665244 0.013512861 3.6014442e-19)
(0.045144483 0.0069270036 5.8680183e-20)
(0.034248857 0.0027834157 -1.1051721e-19)
(0.022064882 0.00067570336 -4.6145487e-21)
(0.018337439 5.9971157e-05 -1.2522926e-21)
(0.0047926651 -2.2316077e-05 4.1575831e-21)
(0.031847811 0.00014373696 3.8495796e-22)
(0.011940503 3.4843259e-05 -2.9044516e-23)
(0.026368028 -0.00075514061 6.6791284e-23)
(0.016538088 -0.0011700382 5.1699897e-21)
(0.010275624 -0.0014188348 7.1305073e-21)
(-0.00096290593 0.00038172934 -8.6087814e-20)
(-0.0077073668 0.0028337445 -8.0287533e-20)
(-0.0088694264 0.004234867 -3.7675701e-20)
(-0.0072496166 0.0041678924 -7.1256511e-20)
(-0.0059955779 0.0039384562 -4.1731139e-20)
(-0.0052682366 0.0038060437 3.9885924e-20)
(-0.0047796319 0.0036921893 -2.3837628e-19)
(-0.0042727769 0.0034588721 -4.8121815e-19)
(-0.0037359193 0.0031199196 3.7929801e-20)
(-0.0031931546 0.0027152822 4.413251e-19)
(-0.0027038431 0.0023132907 2.7126526e-20)
(-0.0023040533 0.0019605489 -2.5541809e-19)
(-0.0020085733 0.0016846538 -5.3272471e-19)
(-0.0018103028 0.0014955614 -2.0461374e-19)
(-0.0016515238 0.0013450846 -1.4339648e-20)
(-0.0015125677 0.0012158626 -4.0365858e-19)
(-0.0013866691 0.0011013524 3.0855102e-19)
(-0.0012380275 0.00097232088 4.8987172e-19)
(-0.0010496422 0.00081565027 -2.5302512e-19)
(-0.00081071675 0.00062330387 -9.197912e-20)
(-0.00051910851 0.00039341227 -8.0755448e-20)
(-0.00017627681 0.00012658349 6.1138041e-19)
(0.00022138592 -0.00018014255 3.5628903e-19)
(0.00065785841 -0.00050985436 -3.3555962e-19)
(0.0011099981 -0.00083851239 -7.7424906e-20)
(0.0015572183 -0.0011444159 -3.1571211e-19)
(0.0019786308 -0.0014068298 6.6349479e-20)
(0.0023589799 -0.0016110743 -4.1596123e-19)
(0.0026977507 -0.0017544392 -2.8804977e-19)
(0.0030146801 -0.001847005 2.8045972e-19)
(0.0033413423 -0.0019040195 -4.7716028e-20)
(0.0037032268 -0.0019379803 1.9875782e-19)
(0.0040908565 -0.0019451873 3.1475226e-19)
(0.0044864166 -0.001913416 -1.7710028e-19)
(0.0048786448 -0.0018358198 5.9807984e-19)
(0.0052571985 -0.0017087435 -2.9256443e-19)
(0.0056073326 -0.0015294634 -2.3332439e-19)
(0.0059364146 -0.0013031304 -6.2890372e-20)
(0.0062236465 -0.0010299803 -8.703019e-20)
(0.0065287302 -0.00072306168 4.79111e-20)
(0.0067852576 -0.00037920525 -4.8428156e-20)
(0.0073468717 -5.6420874e-05 2.7253538e-21)
(0.0075636634 3.1994876e-06 -2.5968814e-23)
(0.007110493 1.1237547e-05 7.1900395e-24)
(0.0065929712 1.3176096e-05 1.2179186e-23)
(0.005967241 1.387879e-05 7.868044e-25)
(0.0053703139 1.2933392e-05 -2.8588774e-24)
(0.0048173321 1.1100661e-05 -1.4275623e-23)
(0.0043682636 8.5205438e-06 2.6357799e-23)
(0.0040324351 5.8095768e-06 -1.8857599e-23)
(0.0038145382 3.2206415e-06 -7.9228487e-24)
(0.0037043386 1.1433218e-06 1.081673e-23)
(0.0036721373 -1.5517296e-07 5.7042195e-24)
(0.0036824399 -6.6665435e-07 -7.4733577e-24)
(0.0037017204 -4.5097503e-07 6.3548906e-25)
(0.0036994385 2.9735042e-07 -1.0359259e-23)
(0.0036593245 1.2043954e-06 1.2418825e-23)
(0.0035827161 1.9826248e-06 -3.0496009e-24)
(0.0034778941 2.5516207e-06 1.3630953e-24)
(0.0033532536 2.7896912e-06 3.0956117e-25)
(0.0032278474 2.4056737e-06 -1.0456388e-23)
(0.0031363097 1.1485378e-06 1.3579293e-23)
(0.0031204247 -1.0136909e-06 -1.2976713e-23)
(0.0032184438 -3.9174534e-06 4.9731569e-24)
(0.0034576647 -7.1175937e-06 4.0844171e-24)
(0.0038385419 -9.8796046e-06 -2.4954899e-24)
(0.0043256341 -1.1346871e-05 2.4280911e-25)
(0.0048454238 -1.0550764e-05 2.7077471e-25)
(0.0052789863 -7.0514125e-06 7.2106203e-25)
(0.0055139101 -7.5651855e-07 -1.0703859e-24)
(0.005422099 8.1397458e-06 -3.3158489e-25)
(0.0049044165 1.8503915e-05 3.441001e-25)
(0.003923214 2.845375e-05 -1.2578518e-26)
(0.0025374138 3.57201e-05 6.2947185e-26)
(0.00090325544 3.8308452e-05 -2.7084729e-25)
(-0.00074732014 3.4720132e-05 7.2464777e-25)
(-0.0021229429 2.4247636e-05 -4.768071e-25)
(-0.0029140635 8.2394178e-06 8.4715748e-26)
(-0.0029295199 -1.1619235e-05 -9.5730283e-25)
(-0.0020096471 -3.3795377e-05 7.6154319e-25)
(-0.000115562 -5.3419968e-05 -2.9627636e-25)
(0.0025164756 -6.1465108e-05 2.2356153e-25)
(0.0051325016 -5.6247261e-05 2.0460797e-25)
(0.0073342558 -4.4935462e-05 -2.4814518e-25)
(0.0090029688 -3.1376758e-05 1.8986149e-25)
(0.010061094 -1.6701991e-05 6.9939499e-25)
(0.010489547 -3.1884605e-06 -2.4011483e-25)
(0.010394337 6.6610686e-06 -8.5366837e-25)
(0.0099645313 1.1593441e-05 7.3792849e-25)
(0.0094163146 1.226194e-05 4.7072657e-25)
(0.0088902269 1.1214291e-05 -7.700985e-25)
(0.008395223 1.1062362e-05 5.3983957e-25)
(0.0078524517 1.3078862e-05 -5.3425036e-26)
(0.0071611029 1.7200677e-05 -2.1496719e-25)
(0.0062445446 2.2827046e-05 -2.612146e-25)
(0.0050536728 2.9305511e-05 -3.128128e-25)
(0.0035686815 3.6015015e-05 -2.4679992e-25)
(0.0017947551 4.2502396e-05 -4.4085179e-25)
(-0.00024825051 4.8537307e-05 1.0097493e-24)
(-0.0025366548 5.4053094e-05 -2.1716043e-24)
(-0.0050470747 5.9001012e-05 1.1452087e-24)
(-0.007751249 6.3293437e-05 3.0091102e-24)
(-0.010618282 6.6866282e-05 -4.3792185e-24)
(-0.013615509 6.9748868e-05 -2.9650096e-24)
(-0.016714278 7.1994124e-05 6.0604898e-24)
(-0.019886863 7.3610165e-05 6.6451483e-24)
(-0.023106095 7.4637984e-05 -2.9678716e-24)
(-0.02634725 7.5099252e-05 -3.2464569e-24)
(-0.029585245 7.4996313e-05 -1.0857683e-23)
(-0.032795673 7.4347521e-05 7.1344747e-24)
(-0.035954964 7.3126954e-05 -3.4326888e-24)
(-0.0390371 7.1308909e-05 7.2354462e-24)
(-0.042015777 6.8872703e-05 1.7251926e-23)
(-0.044863533 6.5751886e-05 -3.8670648e-24)
(-0.047548892 6.1864883e-05 -2.9339735e-23)
(-0.050037299 5.7160784e-05 6.98732e-24)
(-0.052293802 5.1620877e-05 -4.2316545e-24)
(-0.054282811 4.5221731e-05 1.535602e-23)
(-0.055967201 3.7927361e-05 3.6197892e-24)
(-0.057308832 2.9688265e-05 -1.5936548e-24)
(-0.058266407 2.0402645e-05 -1.0578527e-23)
(-0.0587932 9.9097412e-06 4.146779e-24)
(-0.05883427 -2.1309926e-06 3.9276489e-25)
(-0.058312453 -1.6095202e-05 8.7209555e-25)
(-0.057143057 -3.2259329e-05 -5.1772156e-24)
(-0.055228894 -5.0985009e-05 9.146001e-24)
(-0.052454568 -7.2755829e-05 1.8356054e-23)
(-0.048685866 -9.7884186e-05 -5.5357241e-23)
(-0.043785981 -0.00012605953 6.3908131e-23)
(-0.037652685 -0.00015506084 -2.0558117e-23)
(-0.030347302 -0.00017829715 -2.354411e-23)
(-0.02232368 -0.00018143515 2.029827e-23)
(-0.014856171 -0.00015055896 -1.1408253e-23)
(-0.0095452844 -9.6645827e-05 -4.968861e-23)
(-0.0066605579 -4.7518541e-05 2.3159927e-23)
(-0.0055283031 -1.3890721e-05 6.5328729e-23)
(-0.0055863908 5.9797637e-06 2.8490527e-23)
(-0.0061630166 9.1597991e-06 -3.3927778e-23)
(-0.0064944379 -2.317658e-06 -1.0761406e-22)
(-0.0060664274 -1.8415376e-05 2.781733e-23)
(-0.0050427576 -1.6875036e-05 -3.8735573e-23)
(-0.0048462008 2.1134626e-05 1.4340819e-22)
(-0.007117016 6.7233487e-05 3.1012035e-23)
(-0.010656448 6.3242999e-05 -3.7965802e-23)
(-0.012257441 -5.0428897e-06 -4.5972703e-23)
(-0.0098368319 -9.7389931e-05 -4.1162355e-23)
(-0.0036225132 -0.00016103644 3.2293319e-23)
(0.0041209963 -0.00016002781 -4.2673026e-23)
(0.010009529 -5.2323068e-05 1.5994641e-20)
(0.014086059 0.00069002531 1.2018313e-19)
(0.016589105 0.0017947244 1.038725e-18)
(0.016440716 0.002730058 -5.9173093e-19)
(0.014317221 0.0031900159 2.5790281e-19)
(0.011136358 0.0030972989 1.8249554e-18)
(0.007993669 0.002647437 2.8829775e-19)
(0.0057328828 0.002182511 -2.3455068e-18)
(0.0049023479 0.0020813138 -2.8411929e-19)
(0.0055095593 0.0025796611 1.3058581e-18)
(0.0069189305 0.0035654499 5.4638915e-19)
(0.0083108832 0.0046811435 7.4102481e-19)
(0.0091504147 0.0055696065 2.4070737e-18)
(0.0090568726 0.0058847189 1.9178517e-18)
(0.0073255156 0.0050486216 -1.5869835e-19)
(0.0035286593 0.0026091578 -2.1891058e-18)
(-0.0013523373 -0.00085091226 -6.5388146e-19)
(-0.0062580018 -0.0045374417 1.6551745e-18)
(-0.010655126 -0.007969722 1.8584137e-19)
(-0.014225346 -0.010820766 -4.0644515e-19)
(-0.016797497 -0.012890894 6.3745318e-19)
(-0.018302044 -0.014123071 -1.7013251e-19)
(-0.018812101 -0.014602841 -2.3994552e-19)
(-0.018494929 -0.014482797 2.734248e-18)
(-0.01754255 -0.013868793 2.5945665e-19)
(-0.016053487 -0.012832596 9.7771978e-20)
(-0.014130211 -0.011440547 2.8024119e-18)
(-0.011852402 -0.0097382723 -1.1784405e-18)
(-0.0092513568 -0.0077306589 1.523669e-19)
(-0.0063607635 -0.0054262007 -5.1164227e-19)
(-0.0031705878 -0.0028042702 1.410623e-18)
(0.001597791 0.0012545148 2.7137919e-18)
(0.0067826265 0.0056628165 -1.4803129e-18)
(0.012731886 0.010525373 -2.0331573e-18)
(0.019826076 0.015926777 -3.4451431e-19)
(0.028621954 0.02196412 -2.7925774e-18)
(0.039588964 0.028448868 1.4571106e-18)
(0.053263604 0.034881331 1.9567344e-18)
(0.069271662 0.039781709 3.8642915e-19)
(0.085816914 0.040812262 -8.6191815e-20)
(0.095420228 0.034303451 -1.431575e-19)
(0.091381351 0.022675836 -8.4390261e-20)
(0.076303888 0.011827289 -3.7469866e-19)
(0.05856027 0.0048848915 8.4185228e-20)
(0.038536951 0.0012678161 -2.4502608e-20)
(0.03182178 0.00019557708 -1.5044591e-22)
(0.0097541919 -4.2043263e-05 -7.7905816e-21)
(0.045189018 0.00019547959 -6.4976748e-21)
(0.018608114 7.4458607e-05 7.3253429e-23)
(0.037596454 -0.0010923851 -7.087868e-22)
(0.024295526 -0.001644391 -4.1202254e-21)
(0.015327979 -0.002031853 2.1731122e-22)
(-0.00055948574 0.00044059213 2.961741e-20)
(-0.010538073 0.0039239329 -4.4124259e-20)
(-0.012508436 0.0059701621 1.0008776e-19)
(-0.010330824 0.0059212904 -6.9679675e-20)
(-0.0085666803 0.0056136198 -7.2321717e-20)
(-0.007527495 0.0054288165 -3.642639e-19)
(-0.0068268544 0.0052652185 4.4597881e-19)
(-0.0061053972 0.0049334187 -1.8181477e-19)
(-0.0053428743 0.0044525007 7.4980521e-20)
(-0.0045721416 0.0038788182 -6.4654313e-20)
(-0.0038759333 0.0033081242 -6.2329734e-19)
(-0.0033058326 0.0028065662 -5.8239912e-20)
(-0.0028828014 0.0024131862 1.0959077e-19)
(-0.0025963341 0.002141357 -1.2379357e-20)
(-0.0023655323 0.0019235585 -5.3301177e-19)
(-0.0021614405 0.0017347115 2.6852119e-19)
(-0.0019744307 0.0015653495 7.7062184e-20)
(-0.0017546787 0.0013747174 -4.9878734e-19)
(-0.0014781573 0.0011444446 2.3613112e-19)
(-0.0011302641 0.00086378239 -3.8467519e-19)
(-0.00070818554 0.00053033323 -5.1117525e-19)
(-0.0002141674 0.00014500865 -1.3024129e-19)
(0.00035583101 -0.00029528656 1.9697742e-19)
(0.0009795467 -0.00076654273 1.8183587e-19)
(0.0016245383 -0.0012348737 4.5910576e-19)
(0.0022616403 -0.0016695199 6.1390367e-20)
(0.002861358 -0.0020412262 2.1390192e-19)
(0.003402072 -0.0023293971 4.9048302e-19)
(0.0038829061 -0.0025304564 1.0205264e-18)
(0.0043316435 -0.00265892 3.5057195e-19)
(0.0047929775 -0.0027365425 1.6088522e-19)
(0.0053031874 -0.0027810118 -3.1477575e-19)
(0.0058497321 -0.0027874374 -4.3082476e-19)
(0.0064079238 -0.0027387707 -8.2889252e-20)
(0.0069617586 -0.0026253106 -3.6475491e-19)
(0.0074965219 -0.0024418018 2.4201313e-19)
(0.0079914688 -0.0021845382 2.8061789e-19)
(0.0084561209 -0.0018605063 2.674237e-20)
(0.0088619942 -0.0014706868 9.0967768e-20)
(0.0092902156 -0.0010327795 -8.6839789e-20)
(0.0096523477 -0.00054522103 7.2885385e-20)
(0.01042537 -8.583681e-05 -4.1705297e-22)
(0.010725102 6.3611759e-06 -3.0969736e-24)
(0.010103045 2.3335432e-05 3.2707464e-24)
(0.0093742301 2.7585482e-05 -3.0062833e-24)
(0.0084873941 2.9300752e-05 -2.9251563e-24)
(0.0076312638 2.7516031e-05 5.5141386e-24)
(0.0068305791 2.3858618e-05 1.8266422e-23)
(0.0061699201 1.8587829e-05 -2.3919167e-23)
(0.0056647837 1.2988047e-05 1.771249e-23)
(0.0053238927 7.5651694e-06 -2.2838402e-23)
(0.0051361341 3.1354677e-06 5.2260109e-24)
(0.0050623711 2.9548441e-07 2.8968364e-24)
(0.005053243 -8.9438831e-07 1.0549109e-23)
(0.005060839 -5.4700793e-07 -1.4874326e-23)
(0.0050418033 9.2344699e-07 1.4337388e-23)
(0.0049729341 2.7426392e-06 -7.6517385e-25)
(0.0048554962 4.3156643e-06 1.7013128e-24)
(0.0047003327 5.4764771e-06 -1.0402823e-23)
(0.0045182585 5.9666365e-06 -6.2102837e-24)
(0.0043353929 5.1621438e-06 1.0503588e-23)
(0.0042005263 2.5199255e-06 2.4920122e-24)