/*--------------------------------*- C++ -*----------------------------------*\
| =========                 |                                                 |
| \\      /  F ield         | OpenFOAM: The Open Source CFD Toolbox           |
|  \\    /   O peration     | Version:  2.4.0                                 |
|   \\  /    A nd           | Web:      www.OpenFOAM.org                      |
|    \\/     M anipulation  |                                                 |
\*---------------------------------------------------------------------------*/
FoamFile
{
    version     2.0;
    format      ascii;
    class       surfaceScalarField;
    location    "50";
    object      phi;
}
// * * * * * * * * * * * * * * * * * * * * * * * * * * * * * * * * * * * * * //

dimensions      [0 3 -1 0 0 0 0];

internalField   nonuniform List<scalar> 
63640
(
-4.4238721e-07
-1.0790871e-07
-6.0640919e-07
1.6402199e-07
-5.4930113e-07
-5.7107975e-08
-5.3632552e-07
-1.2975511e-08
-4.6671228e-07
-6.9613134e-08
-4.6079129e-07
-5.9209097e-09
-4.4805484e-07
-1.2736352e-08
-4.4521822e-07
-2.8365855e-09
-3.9976859e-07
-4.5449571e-08
-3.0622391e-07
-9.3544671e-08
-1.7069808e-07
-1.355258e-07
-3.8925073e-08
-1.3177303e-07
7.3034271e-08
-1.1195934e-07
1.5349566e-07
-8.0461409e-08
2.0796008e-07
-5.446386e-08
2.4050037e-07
-3.2540787e-08
2.5751696e-07
-1.7016297e-08
2.622025e-07
-4.6860055e-09
2.5649505e-07
5.7075059e-09
2.4275938e-07
1.3735533e-08
2.2511591e-07
1.7643532e-08
2.0786897e-07
1.7246972e-08
1.9377626e-07
1.4092735e-08
1.8061755e-07
1.3158688e-08
1.6312621e-07
1.7491334e-08
1.3901486e-07
2.4111292e-08
1.1075559e-07
2.8259223e-08
8.235604e-08
2.8399461e-08
5.7997528e-08
2.4358447e-08
4.2083151e-08
1.5914283e-08
3.9360846e-08
2.7222227e-09
5.4271986e-08
-1.4911243e-08
9.1158954e-08
-3.6886926e-08
1.5506839e-07
-6.3909627e-08
2.4941326e-07
-9.4344748e-08
3.6986397e-07
-1.204509e-07
5.1398632e-07
-1.4412217e-07
6.8472002e-07
-1.7073398e-07
8.8049861e-07
-1.957784e-07
1.0972879e-06
-2.1678968e-07
1.3282055e-06
-2.3091745e-07
1.5646849e-06
-2.3647974e-07
1.7961736e-06
-2.3148855e-07
2.0164531e-06
-2.2027984e-07
2.2199382e-06
-2.0348514e-07
2.4491331e-06
-2.2919517e-07
2.6277023e-06
-1.7856864e-07
2.4662622e-06
1.6143938e-07
2.0487347e-06
4.1752783e-07
1.4962834e-06
5.5245053e-07
8.9113234e-07
6.0515091e-07
3.4068191e-07
5.5045e-07
-6.7165399e-08
4.0784543e-07
-2.7669194e-07
2.0952797e-07
-2.9002328e-07
1.3330663e-08
-2.2784298e-07
-6.2179682e-08
-3.4995869e-07
1.2211606e-07
-7.0912872e-07
3.5916946e-07
-9.5992874e-07
2.5079937e-07
-8.6186688e-07
-9.8061426e-08
-5.5741902e-07
-3.0444786e-07
-2.6956013e-07
-2.8785909e-07
-8.2386237e-08
-1.8717397e-07
1.8013504e-08
-1.0039992e-07
7.5925137e-08
-5.7911911e-08
1.2317941e-07
-4.7254301e-08
1.6997381e-07
-4.6794774e-08
2.1566026e-07
-4.5686352e-08
2.5849982e-07
-4.2839935e-08
2.9977195e-07
-4.1271893e-08
3.4293681e-07
-4.3165031e-08
3.9043374e-07
-4.7496819e-08
4.4144066e-07
-5.1006875e-08
4.9045404e-07
-4.9013585e-08
5.2853809e-07
-3.8084145e-08
5.437199e-07
-1.5181967e-08
5.2165976e-07
2.2059917e-08
4.5112833e-07
7.0531387e-08
3.3063167e-07
1.2049647e-07
1.700057e-07
1.6062594e-07
-1.5895167e-08
1.8590059e-07
-2.1534564e-07
1.9945048e-07
-4.1998889e-07
2.0464291e-07
-6.2319536e-07
2.0320659e-07
-8.2013771e-07
1.9694225e-07
-1.0077568e-06
1.8761912e-07
-1.184511e-06
1.7675422e-07
-1.3496752e-06
1.6516398e-07
-1.5030834e-06
1.5340794e-07
-1.6449835e-06
1.4189987e-07
-1.7756798e-06
1.3069599e-07
-1.8956051e-06
1.1992481e-07
-2.0051616e-06
1.0955623e-07
-2.1046762e-06
9.9513345e-08
-2.1945152e-06
8.9839507e-08
-2.2750232e-06
8.0507037e-08
-2.3465328e-06
7.1510342e-08
-2.4094628e-06
6.2928597e-08
-2.4642617e-06
5.4799649e-08
-2.5113575e-06
4.7094721e-08
-2.551203e-06
3.9846664e-08
-2.5842581e-06
3.3054775e-08
-2.6109382e-06
2.6680334e-08
-2.6316392e-06
2.070032e-08
-2.6467611e-06
1.5122336e-08
-2.6566482e-06
9.8864736e-09
-2.6615754e-06
4.9277815e-09
-2.6617612e-06
1.8511057e-10
-2.6573697e-06
-4.3907262e-09
-2.6485749e-06
-8.7952784e-09
-2.6355755e-06
-1.2998763e-08
-2.618523e-06
-1.7053028e-08
-2.5975591e-06
-2.0963609e-08
-2.572817e-06
-2.4742445e-08
-2.5443739e-06
-2.8442653e-08
-2.5123498e-06
-3.2024403e-08
-2.4768594e-06
-3.5490256e-08
-2.4379651e-06
-3.8894776e-08
-2.3957945e-06
-4.217033e-08
-2.3504796e-06
-4.5315128e-08
-2.3021096e-06
-4.8369778e-08
-2.250842e-06
-5.1268302e-08
-2.1968493e-06
-5.3992237e-08
-2.1402588e-06
-5.6591082e-08
-2.0812647e-06
-5.8993645e-08
-2.0200815e-06
-6.1183535e-08
-1.9568684e-06
-6.3212758e-08
-1.8918512e-06
-6.5018149e-08
-1.8252646e-06
-6.6585935e-08
-1.7572932e-06
-6.7972024e-08
-1.6881633e-06
-6.9129087e-08
-1.6181186e-06
-7.0045537e-08
-1.5473424e-06
-7.0775562e-08
-1.4760734e-06
-7.1269667e-08
-1.4045193e-06
-7.1553078e-08
-1.332897e-06
-7.1622256e-08
-1.2614485e-06
-7.1448414e-08
-1.1904291e-06
-7.1020078e-08
-1.1201324e-06
-7.0296117e-08
-1.0509319e-06
-6.920091e-08
-9.8328587e-07
-6.7645327e-08
-9.1778947e-07
-6.5496592e-08
-8.5521496e-07
-6.2574179e-08
-7.9659411e-07
-5.862139e-08
-7.4324789e-07
-5.3345578e-08
-6.9680787e-07
-4.6440102e-08
-6.5939758e-07
-3.7409768e-08
-6.3151995e-07
-2.7877606e-08
-6.1161598e-07
-1.9903814e-08
-5.9782796e-07
-1.3788257e-08
-5.9178402e-07
-6.0434823e-09
-5.8798576e-07
-3.7983525e-09
-5.8369479e-07
-4.2904642e-09
-5.9081949e-07
7.124927e-09
-6.127725e-07
2.1953227e-08
-6.4242095e-07
2.9648746e-08
-6.5392353e-07
1.1502605e-08
-6.156981e-07
-3.8225194e-08
-5.2349493e-07
-9.2203177e-08
-3.9889417e-07
-1.2460055e-07
-2.660307e-07
-1.3286348e-07
-1.403897e-07
-1.2564084e-07
-2.7533431e-08
-1.1285625e-07
7.5110461e-08
-1.0264374e-07
1.7348332e-07
-9.8372823e-08
2.7077557e-07
-9.7292085e-08
3.64984e-07
-9.4208396e-08
4.5514332e-07
-9.0159097e-08
5.4189955e-07
-8.6756201e-08
6.2582486e-07
-8.3925228e-08
7.0711799e-07
-8.1293054e-08
7.8540052e-07
-7.8282465e-08
8.5843086e-07
-7.3030276e-08
9.2147423e-07
-6.3043316e-08
9.732234e-07
-5.1749114e-08
1.0183634e-06
-4.5139993e-08
1.0648442e-06
-4.6480688e-08
1.1120563e-06
-4.7212078e-08
1.1607171e-06
-4.8660772e-08
1.2139496e-06
-5.3232474e-08
1.2750421e-06
-6.1092527e-08
1.348202e-06
-7.3159715e-08
1.4454903e-06
-9.7288202e-08
1.5834587e-06
-1.379683e-07
1.7556697e-06
-1.7221083e-07
1.9561345e-06
-2.0046402e-07
2.1922101e-06
-2.3607592e-07
2.4758009e-06
-2.8358962e-07
2.8184343e-06
-3.4263425e-07
3.2272303e-06
-4.0879602e-07
3.6684163e-06
-4.411859e-07
4.0328815e-06
-3.6446512e-07
4.0529818e-06
-2.0100222e-08
3.3904053e-06
6.6257657e-07
2.1608358e-06
1.2295696e-06
9.7619016e-07
1.1846455e-06
-3.5804583e-09
9.7977048e-07
-3.5344021e-07
3.4985956e-07
-4.702303e-07
1.1678992e-07
8.0065419e-08
-1.3945541e-06
-3.462669e-07
-1.9165164e-06
6.8598427e-07
-1.658471e-06
-3.1515323e-07
-1.6690059e-06
-2.4404565e-09
-1.4159092e-06
-3.2270974e-07
-1.4327543e-06
1.0924328e-08
-1.3707988e-06
-7.4691674e-08
-1.3677231e-06
-5.9123128e-09
-1.2100378e-06
-2.0313472e-07
-9.2383686e-07
-3.7974564e-07
-5.0414556e-07
-5.5521706e-07
-1.0208817e-07
-5.3383046e-07
2.4238958e-07
-4.5643707e-07
4.8754649e-07
-3.2561835e-07
6.5512551e-07
-2.2204221e-07
7.5458076e-07
-1.3199662e-07
8.0671189e-07
-6.9147103e-08
8.1991046e-07
-1.7885132e-08
8.0065987e-07
2.4958142e-08
7.557679e-07
5.8627336e-08
6.9788044e-07
7.5531071e-08
6.403519e-07
7.4775552e-08
5.9207019e-07
6.2374488e-08
5.4664211e-07
5.8586739e-08
4.8815104e-07
7.5982394e-08
4.0968017e-07
1.0258208e-07
3.1885998e-07
1.1907935e-07
2.2821168e-07
1.1904764e-07
1.5080825e-07
1.0176178e-07
1.0030671e-07
6.6415692e-08
9.133057e-08
1.1698243e-08
1.3753875e-07
-6.1119565e-08
2.5257339e-07
-1.5192154e-07
4.5249431e-07
-2.6383078e-07
7.4842794e-07
-3.9027825e-07
1.1260209e-06
-4.9804409e-07
1.5767497e-06
-5.9485079e-07
2.1098636e-06
-7.0384818e-07
2.7207544e-06
-8.0666904e-07
3.3971356e-06
-8.9317131e-07
4.1179444e-06
-9.5172603e-07
4.8570094e-06
-9.7554534e-07
5.581962e-06
-9.564409e-07
6.2736668e-06
-9.119851e-07
6.9142686e-06
-8.4408697e-07
7.6271003e-06
-9.4202726e-07
8.1579924e-06
-7.0946e-07
7.7270326e-06
5.9239819e-07
6.4993395e-06
1.6452213e-06
4.8299796e-06
2.2218095e-06
2.962414e-06
2.4727162e-06
1.2247119e-06
2.2881515e-06
-1.0172971e-07
1.7342847e-06
-8.1836303e-07
9.2616296e-07
-9.070523e-07
1.0201911e-07
-7.536907e-07
-2.1554051e-07
-1.1587538e-06
5.2717956e-07
-2.2432769e-06
1.4436919e-06
-2.9626788e-06
9.7020052e-07
-2.6313704e-06
-4.2936933e-07
-1.6908991e-06
-1.2449192e-06
-8.0524206e-07
-1.1735164e-06
-2.2776583e-07
-7.6465032e-07
8.4368189e-08
-4.1253416e-07
2.6774406e-07
-2.4128815e-07
4.1854108e-07
-1.9805137e-07
5.6724969e-07
-1.9550387e-07
7.1174545e-07
-1.9018202e-07
8.4691188e-07
-1.7800682e-07
9.766917e-07
-1.7105143e-07
1.1115607e-06
-1.7803427e-07
1.2583844e-06
-1.943204e-07
1.4132624e-06
-2.0588478e-07
1.5577309e-06
-1.9348233e-07
1.6625374e-06
-1.4289083e-07
1.6889461e-06
-4.1590904e-08
1.5920882e-06
1.1891754e-07
1.3391471e-06
3.2347248e-07
9.2968908e-07
5.2995421e-07
3.987532e-07
6.9156176e-07
-2.0530794e-07
7.8996141e-07
-8.4618175e-07
8.403242e-07
-1.4985972e-06
8.5705798e-07
-2.1424728e-06
8.4708229e-07
-2.7634934e-06
8.1796265e-07
-3.3527881e-06
7.7691378e-07
-3.9060867e-06
7.3005288e-07
-4.4216058e-06
6.8068266e-07
-4.8991624e-06
6.3096413e-07
-5.3397833e-06
5.8252057e-07
-5.7446324e-06
5.3554466e-07
-6.1151972e-06
4.9048898e-07
-6.4528703e-06
4.4722889e-07
-6.7587832e-06
4.0542474e-07
-7.0341664e-06
3.6522311e-07
-7.2801892e-06
3.2652877e-07
-7.4979758e-06
2.8929775e-07
-7.6888904e-06
2.5384158e-07
-7.8543828e-06
2.2029282e-07
-7.9958283e-06
1.8853899e-07
-8.1146615e-06
1.5868128e-07
-8.212332e-06
1.3072486e-07
-8.2901464e-06
1.0449497e-07
-8.3493471e-06
7.9900252e-08
-8.3911766e-06
5.6952358e-08
-8.4167064e-06
3.5415433e-08
-8.4267895e-06
1.5011604e-08
-8.4220618e-06
-4.5434543e-09
-8.4030176e-06
-2.3434098e-08
-8.3702176e-06
-4.1595679e-08
-8.3242702e-06
-5.8945527e-08
-8.2656553e-06
-7.5668498e-08
-8.1948136e-06
-9.1804957e-08
-8.1121606e-06
-1.0739579e-07
-8.017957e-06
-1.2264576e-07
-7.9125756e-06
-1.3740623e-07
-7.7963806e-06
-1.5168512e-07
-7.6695942e-06
-1.6568171e-07
-7.5326133e-06
-1.7915089e-07
-7.3858609e-06
-1.9206791e-07
-7.2296395e-06
-2.0459086e-07
-7.0644411e-06
-2.1646759e-07
-6.8908115e-06
-2.2762128e-07
-6.7091688e-06
-2.3823444e-07
-6.5201164e-06
-2.4804554e-07
-6.3243234e-06
-2.5697693e-07
-6.1223042e-06
-2.652317e-07
-5.9147515e-06
-2.7257183e-07
-5.7024004e-06
-2.7893634e-07
-5.4858304e-06
-2.8454275e-07
-5.265739e-06
-2.8921955e-07
-5.042878e-06
-2.9290749e-07
-4.817831e-06
-2.9582183e-07
-4.5913232e-06
-2.9777823e-07
-4.3640152e-06
-2.9885991e-07
-4.1365776e-06
-2.9905962e-07
-3.9097691e-06
-2.9825684e-07
-3.6843998e-06
-2.9639021e-07
-3.4614147e-06
-2.9328054e-07
-3.2419913e-06
-2.8862478e-07
-3.0276183e-06
-2.8201749e-07
-2.8202007e-06
-2.7291435e-07
-2.6222411e-06
-2.6053343e-07
-2.4370495e-06
-2.4381355e-07
-2.2689179e-06
-2.214765e-07
-2.1230136e-06
-1.9234442e-07
-2.0058855e-06
-1.5453721e-07
-1.9186912e-06
-1.1507181e-07
-1.8576811e-06
-8.0913734e-08
-1.8178772e-06
-5.3592393e-08
-1.8040235e-06
-1.9896659e-08
-1.7984824e-06
-9.3395457e-09
-1.7937384e-06
-9.0338277e-09
-1.8245937e-06
3.7980591e-08
-1.8961509e-06
9.3510679e-08
-1.9858061e-06
1.1930431e-07
-2.0147195e-06
4.0416092e-08
-1.8869331e-06
-1.6601127e-07
-1.591714e-06
-3.874223e-07
-1.1964784e-06
-5.198359e-07
-7.764901e-07
-5.5285172e-07
-3.7976531e-07
-5.2236541e-07
-2.3743016e-08
-4.688785e-07
3.00196e-07
-4.2658255e-07
6.1055152e-07
-4.0872828e-07
9.1677134e-07
-4.0351169e-07
1.2129046e-06
-3.9034163e-07
1.4961496e-06
-3.7340373e-07
1.7685125e-06
-3.5911907e-07
2.0318407e-06
-3.4725337e-07
2.2866954e-06
-3.361476e-07
2.5319943e-06
-3.2358126e-07
2.7605003e-06
-3.0153623e-07
2.958367e-06
-2.609099e-07
3.1212044e-06
-2.1458645e-07
3.2637017e-06
-1.8763727e-07
3.4085243e-06
-1.913032e-07
3.5554578e-06
-1.9414548e-07
3.7065784e-06
-1.9978133e-07
3.8715587e-06
-2.1821276e-07
4.0606763e-06
-2.5021013e-07
4.2871728e-06
-2.996561e-07
4.5889194e-06
-3.9903463e-07
5.0128349e-06
-5.6188363e-07
5.5433892e-06
-7.0276483e-07
6.1635052e-06
-8.2057904e-07
6.8949377e-06
-9.6750872e-07
7.7730053e-06
-1.1616558e-06
8.8328045e-06
-1.4024345e-06
1.0093053e-05
-1.6690444e-06
1.1449882e-05
-1.7980149e-06
1.2575756e-05
-1.4903394e-06
1.2668434e-05
-1.1277722e-07
1.0761065e-05
2.5699456e-06
7.0812134e-06
4.9094208e-06
3.4314654e-06
4.8343934e-06
2.3676097e-07
4.1744747e-06
-8.9465784e-07
1.4812781e-06
-1.512745e-06
7.348768e-07
2.0023249e-07
-2.4659525e-06
-6.753188e-07
-3.3685326e-06
1.5885644e-06
-2.8541667e-06
-8.2951906e-07
-2.9039674e-06
4.7360433e-08
-2.4400971e-06
-7.8658e-07
-2.5017974e-06
7.2624805e-08
-2.3802134e-06
-1.9627559e-07
-2.3777334e-06
-8.3922764e-09
-2.0889085e-06
-4.9195956e-07
-1.5910535e-06
-8.7760062e-07
-8.5793591e-07
-1.2883346e-06
-1.5881385e-07
-1.2329526e-06
4.4311724e-07
-1.0583682e-06
8.7006394e-07
-7.5256507e-07
1.1635618e-06
-5.1553948e-07
1.3374026e-06
-3.0583794e-07
1.4284343e-06
-1.6017852e-07
1.4502169e-06
-3.9668168e-08
1.4144503e-06
6.0724737e-08
1.3326483e-06
1.4042922e-07
1.2267955e-06
1.8138393e-07
1.1204025e-06
1.8116861e-07
1.0295333e-06
1.5324375e-07
9.4360914e-07
1.4451083e-07
8.352166e-07
1.8437493e-07
6.9244673e-07
2.4535187e-07
5.2864964e-07
2.8287638e-07
3.6587425e-07
2.8182292e-07
2.2721318e-07
2.4042278e-07
1.3669136e-07
1.5693739e-07
1.1982662e-07
2.856289e-08
2.0039832e-07
-1.4169139e-07
4.0239835e-07
-3.5392153e-07
7.5437529e-07
-6.1580794e-07
1.2764963e-06
-9.1239918e-07
1.9423282e-06
-1.1638762e-06
2.7352688e-06
-1.3877912e-06
3.6714731e-06
-1.6400528e-06
4.7430931e-06
-1.8782888e-06
5.9289168e-06
-2.0789954e-06
7.1926582e-06
-2.2154672e-06
8.4892718e-06
-2.2721594e-06
9.7632645e-06
-2.2304334e-06
1.0981197e-05
-2.1299184e-06
1.2112862e-05
-1.9757515e-06
1.3354775e-05
-2.1839404e-06
1.4265921e-05
-1.6206052e-06
1.3609194e-05
1.2491242e-06
1.1575254e-05
3.6791616e-06
8.7328382e-06
5.0642242e-06
5.4905056e-06
5.7150486e-06
2.4110559e-06
5.3676007e-06
-5.2021451e-10
4.1458589e-06
-1.3577083e-06
2.2833525e-06
-1.5903611e-06
3.346712e-07
-1.3856717e-06
-4.2022928e-07
-2.1307091e-06
1.2722173e-06
-3.9789168e-06
3.291899e-06
-5.1482391e-06
2.1395222e-06
-4.529525e-06
-1.0480831e-06
-2.8922893e-06
-2.8821549e-06
-1.3562527e-06
-2.7095532e-06
-3.5216446e-07
-1.7687386e-06
1.9411507e-07
-9.588139e-07
5.1970668e-07
-5.6688007e-07
7.8918774e-07
-4.6753248e-07
1.0541051e-06
-4.6042165e-07
1.310635e-06
-4.4671184e-07
1.550129e-06
-4.1750115e-07
1.7793261e-06
-4.0024832e-07
2.0160237e-06
-4.1473209e-07
2.2710739e-06
-4.4937052e-07
2.5356909e-06
-4.7050165e-07
2.7755534e-06
-4.3334514e-07
2.937155e-06
-3.0449253e-07
2.9503598e-06
-5.479587e-08
2.7362462e-06
3.3303087e-07
2.2406522e-06
8.1906641e-07
1.4693695e-06
1.3012367e-06
4.9067932e-07
1.6702519e-06
-6.0720186e-07
1.8878423e-06
-1.7611025e-06
1.9942249e-06
-2.9280769e-06
2.024032e-06
-4.0737365e-06
1.992742e-06
-5.1740923e-06
1.9183184e-06
-6.21462e-06
1.8174415e-06
-7.1886715e-06
1.7041044e-06
-8.0938457e-06
1.5858566e-06
-8.9303546e-06
1.4674727e-06
-9.7004012e-06
1.3525669e-06
-1.0406358e-05
1.2415012e-06
-1.1051064e-05
1.1351945e-06
-1.1637175e-05
1.0333395e-06
-1.2166859e-05
9.3510715e-07
-1.2642421e-05
8.4078552e-07
-1.3066062e-05
7.5016941e-07
-1.3439891e-05
6.6312661e-07
-1.3766392e-05
5.8034162e-07
-1.4048186e-05
5.0208716e-07
-1.4287747e-05
4.2809917e-07
-1.4487631e-05
3.5856689e-07
-1.4650403e-05
2.9349646e-07
-1.4778374e-05
2.3246629e-07
-1.4873739e-05
1.7526388e-07
-1.493867e-05
1.2188392e-07
-1.4975046e-05
7.1791396e-08
-1.4984345e-05
2.431102e-08
-1.4967595e-05
-2.1294607e-08
-1.4925654e-05
-6.5373875e-08
-1.4859554e-05
-1.0769663e-07
-1.4770347e-05
-1.481514e-07
-1.4658888e-05
-1.8712792e-07
-1.4525949e-05
-2.2474355e-07
-1.4372263e-05
-2.6108242e-07
-1.4198316e-05
-2.9659251e-07
-1.4004762e-05
-3.3096042e-07
-1.3792252e-05
-3.6419467e-07
-1.3561216e-05
-3.9671884e-07
-1.331235e-05
-4.2801629e-07
-1.3046413e-05
-4.580054e-07
-1.2763972e-05
-4.8703194e-07
-1.246589e-05
-5.1455008e-07
-1.2153136e-05
-5.4037478e-07
-1.1826473e-05
-5.6489787e-07
-1.1486955e-05
-5.8756281e-07
-1.1135756e-05
-6.081762e-07
-1.0773801e-05
-6.2718647e-07
-1.040229e-05
-6.4408378e-07
-1.002251e-05
-6.5871612e-07
-9.6354846e-06
-6.7156874e-07
-9.2424229e-06
-6.822804e-07
-8.8446328e-06
-6.9069841e-07
-8.4431463e-06
-6.9730767e-07
-8.0392149e-06
-7.0171036e-07
-7.6340057e-06
-7.0406801e-07
-7.2286928e-06
-7.0437235e-07
-6.8246113e-06
-7.0233836e-07
-6.4232018e-06
-6.9780043e-07
-6.0261574e-06
-6.9032427e-07
-5.6355745e-06
-6.7920813e-07
-5.2541402e-06
-6.6345099e-07
-4.8852791e-06
-6.4177564e-07
-4.5335108e-06
-6.123014e-07
-4.2047918e-06
-5.7253306e-07
-3.906876e-06
-5.1939165e-07
-3.6489682e-06
-4.5025224e-07
-3.4423538e-06
-3.6115105e-07
-3.2888691e-06
-2.6855653e-07
-3.1834579e-06
-1.8632475e-07
-3.1184425e-06
-1.1860798e-07
-3.1015495e-06
-3.6789167e-08
-3.1015402e-06
-9.3489107e-09
-3.1063722e-06
-4.2013258e-09
-3.1728535e-06
1.0446217e-07
-3.3027599e-06
2.2341735e-07
-3.4554881e-06
2.7203285e-07
-3.4950662e-06
7.9994275e-08
-3.2576282e-06
-4.0344903e-07
-2.7283084e-06
-9.1674208e-07
-2.0257548e-06
-1.2223893e-06
-1.2815073e-06
-1.2970992e-06
-5.7918155e-07
-1.224691e-06
5.0776678e-08
-1.0988367e-06
6.2434776e-07
-1.0001535e-06
1.1740572e-06
-9.5843768e-07
1.7159112e-06
-9.4536547e-07
2.2397657e-06
-9.1419614e-07
2.7409272e-06
-8.7456491e-07
3.2228869e-06
-8.4107873e-07
3.6888897e-06
-8.132561e-07
4.1398372e-06
-7.8709498e-07
4.5738009e-06
-7.575449e-07
4.9778453e-06
-7.055806e-07
5.3284711e-06
-6.115356e-07
5.6178471e-06
-5.0396241e-07
5.8715525e-06
-4.413426e-07
6.1274083e-06
-4.4715897e-07
6.3866216e-06
-4.5335869e-07
6.6529501e-06
-4.6610982e-07
6.9433103e-06
-5.0857287e-07
7.2759143e-06
-5.8281408e-07
7.6745421e-06
-6.9828387e-07
8.2055952e-06
-9.3008756e-07
8.9472229e-06
-1.3035112e-06
9.8760837e-06
-1.6316254e-06
1.0963733e-05
-1.908227e-06
1.2246701e-05
-2.2504774e-06
1.3784331e-05
-2.6992847e-06
1.563582e-05
-3.2539241e-06
1.7828524e-05
-3.861749e-06
2.0180988e-05
-4.1504782e-06
2.2133061e-05
-3.4424124e-06
2.233503e-05
-3.147467e-07
1.9192427e-05
5.7125493e-06
1.2966214e-05
1.1135633e-05
6.60962e-06
1.1190987e-05
8.4394364e-07
9.9401509e-06
-1.291936e-06
3.6171575e-06
-2.648796e-06
2.0917366e-06
3.4644072e-07
-3.6545413e-06
-1.0762545e-06
-4.9371281e-06
2.8711512e-06
-4.139271e-06
-1.6273761e-06
-4.223747e-06
1.318366e-07
-3.5404231e-06
-1.4699037e-06
-3.6606121e-06
1.928139e-07
-3.4780864e-06
-3.7880119e-07
-3.4703236e-06
-1.6155004e-08
-3.0334636e-06
-9.2881943e-07
-2.3013784e-06
-1.6096859e-06
-1.2270865e-06
-2.3626265e-06
-2.0414942e-07
-2.2558896e-06
6.7850859e-07
-1.9410262e-06
1.3037374e-06
-1.3777939e-06
1.7351512e-06
-9.4695272e-07
1.9907883e-06
-5.6147551e-07
2.124308e-06
-2.9369802e-07
2.1547286e-06
-7.0089222e-08
2.0992074e-06
1.1624589e-07
1.9742932e-06
2.6534331e-07
1.8119792e-06
3.4369803e-07
1.6470688e-06
3.4607899e-07
1.5039159e-06
2.9639679e-07
1.3678459e-06
2.8058071e-07
1.1992352e-06
3.5298569e-07
9.8096513e-07
4.6362181e-07
7.3274634e-07
5.310951e-07
4.8718726e-07
5.2738186e-07
2.7858734e-07
4.490226e-07
1.4245663e-07
2.9306795e-07
1.1621626e-07
5.4803132e-08
2.3455226e-07
-2.6002755e-07
5.3280557e-07
-6.5217482e-07
1.0535184e-06
-1.136521e-06
1.8273904e-06
-1.6862711e-06
2.8137449e-06
-2.1502308e-06
3.9854518e-06
-2.559498e-06
5.3660706e-06
-3.020672e-06
6.9443171e-06
-3.4565351e-06
8.689469e-06
-3.8241477e-06
1.0549121e-05
-4.0751196e-06
1.2458229e-05
-4.1812672e-06
1.4337221e-05
-4.1094254e-06
1.6136643e-05
-3.9293411e-06
1.7814564e-05
-3.6536728e-06
1.9626506e-05
-3.9958824e-06
2.0955063e-05
-2.9491621e-06
2.0126659e-05
2.0775279e-06
1.7317149e-05
6.4886715e-06
1.3267657e-05
9.1137156e-06
8.5503047e-06
1.0432401e-05
3.971147e-06
9.9467579e-06
2.8992486e-07
7.8270789e-06
-1.8670244e-06
4.4403032e-06
-2.3352896e-06
8.0293565e-07
-2.134318e-06
-6.212002e-07
-3.2797664e-06
2.417666e-06
-5.9186973e-06
5.9308293e-06
-7.5042807e-06
3.7251048e-06
-6.5376174e-06
-2.0147459e-06
-4.1440847e-06
-5.2756877e-06
-1.9079602e-06
-4.9456779e-06
-4.4236342e-07
-3.2343355e-06
3.6037608e-07
-1.7615536e-06
8.4555591e-07
-1.0520603e-06
1.2497178e-06
-8.7169447e-07
1.645874e-06
-8.5657833e-07
2.0282919e-06
-8.291296e-07
2.3845936e-06
-7.7380334e-07
2.7243233e-06
-7.3997774e-07
3.0726647e-06
-7.6307374e-07
3.4437101e-06
-8.2041573e-07
3.821674e-06
-8.4846556e-07
4.1530784e-06
-7.6474979e-07
4.3556722e-06
-5.0708653e-07
4.322672e-06
-2.1795875e-08
3.9374929e-06
7.1820971e-07
3.1257196e-06
1.6308396e-06
1.9061528e-06
2.5208033e-06
3.9045335e-07
3.1859513e-06
-1.2860294e-06
3.5643247e-06
-3.03173e-06
3.7399253e-06
-4.7856673e-06
3.7779688e-06
-6.498352e-06
3.7054268e-06
-8.1361816e-06
3.5561477e-06
-9.6793711e-06
3.360631e-06
-1.1119444e-05
3.1441768e-06
-1.2453977e-05
2.9203897e-06
-1.368412e-05
2.6976155e-06
-1.4813746e-05
2.4821928e-06
-1.5846863e-05
2.2746171e-06
-1.6788022e-05
2.0763525e-06
-1.7641464e-05
1.8867813e-06
-1.8410674e-05
1.7043161e-06
-1.9099286e-05
1.5293979e-06
-1.9710776e-05
1.3616581e-06
-2.0248454e-05
1.2008056e-06
-2.0716131e-05
1.0480167e-06
-2.1117777e-05
9.037335e-07
-2.1457134e-05
7.6745546e-07
-2.173803e-05
6.3946373e-07
-2.1964273e-05
5.1973985e-07
-2.2139302e-05
4.074949e-07
-2.2266371e-05
3.023326e-07
-2.2348676e-05
2.0418963e-07
-2.238899e-05
1.1210391e-07
-2.2389407e-05
2.4729427e-08
-2.2351312e-05
-5.9390626e-08
-2.2276009e-05
-1.4067667e-07
-2.2165088e-05
-2.1861762e-07
-2.202009e-05
-2.9314861e-07
-2.1842289e-05
-3.6492944e-07
-2.1632824e-05
-4.3420839e-07
-2.1392784e-05
-5.0112283e-07
-2.1122928e-05
-5.6644803e-07
-2.0824223e-05
-6.2966554e-07
-2.0497649e-05
-6.9076936e-07
-2.0143891e-05
-7.5047709e-07
-1.9763984e-05
-8.079232e-07
-1.9359066e-05
-8.629234e-07
-1.8930025e-05
-9.1607236e-07
-1.8478135e-05
-9.6644063e-07
-1.8004837e-05
-1.0136733e-06
-1.7511295e-05
-1.0584403e-06
-1.6999054e-05
-1.0998032e-06
-1.6469842e-05
-1.1373886e-06
-1.592505e-05
-1.1719781e-06
-1.5366423e-05
-1.2027117e-06
-1.4795846e-05
-1.2292924e-06
-1.4214839e-05
-1.2525762e-06
-1.3625157e-05
-1.2719615e-06
-1.302871e-05
-1.287146e-06
-1.2427022e-05
-1.2989957e-06
-1.182191e-05
-1.3068227e-06
-1.1215097e-05
-1.3108801e-06
-1.0608311e-05
-1.3111579e-06
-1.0003525e-05
-1.3071248e-06
-9.4028864e-06
-1.2984395e-06
-8.8089338e-06
-1.2842763e-06
-8.2248097e-06
-1.2633327e-06
-7.6545721e-06
-1.2336878e-06
-7.1033939e-06
-1.192954e-06
-6.5781139e-06
-1.137581e-06
-6.0877356e-06
-1.0629119e-06
-5.6439822e-06
-9.6314433e-07
-5.2606265e-06
-8.3360788e-07
-4.9539857e-06
-6.6779129e-07
-4.7269189e-06
-4.9562319e-07
-4.5740555e-06
-3.3918796e-07
-4.4854756e-06
-2.0718812e-07
-4.471627e-06
-5.0637272e-08
-4.4865173e-06
5.5413778e-09
-4.5137593e-06
2.3041365e-08
-4.6299826e-06
2.2068583e-07
-4.8276029e-06
4.2103788e-07
-5.0447763e-06
4.8920663e-07
-5.0844951e-06
1.1971324e-07
-4.7130605e-06
-7.7488333e-07
-3.91518e-06
-1.7146226e-06
-2.8665436e-06
-2.2710254e-06
-1.7596042e-06
-2.4040386e-06
-7.1626593e-07
-2.268029e-06
2.1911843e-07
-2.034221e-06
1.0714202e-06
-1.852455e-06
1.8886862e-06
-1.7757036e-06
2.6936258e-06
-1.7503049e-06
3.4716954e-06
-1.6922656e-06
4.2162969e-06
-1.6191662e-06
4.9325432e-06
-1.5573249e-06
5.6251731e-06
-1.5058859e-06
6.295439e-06
-1.4573607e-06
6.9403484e-06
-1.4024542e-06
7.5408112e-06
-1.3060433e-06
8.0630409e-06
-1.1337652e-06
8.4955647e-06
-9.3648615e-07
8.8750811e-06
-8.2085897e-07
9.2552857e-06
-8.273635e-07
9.6395545e-06
-8.3762743e-07
1.0033897e-05
-8.6045235e-07
1.0463092e-05
-9.3776746e-07
1.0954159e-05
-1.0738814e-06
1.1543039e-05
-1.2871634e-06
1.232645e-05
-1.7134985e-06
1.3415325e-05
-2.3923864e-06
1.4779817e-05
-2.9961173e-06
1.6380648e-05
-3.5090564e-06
1.8268907e-05
-4.1387368e-06
2.0528533e-05
-4.9589097e-06
2.3242678e-05
-5.9680693e-06
2.6444841e-05
-7.0639118e-06
2.9871726e-05
-7.5773639e-06
3.272061e-05
-6.2912964e-06
3.309796e-05
-6.9209601e-07
2.8766487e-05
1.0044022e-05
1.9948665e-05
1.9953456e-05
1.0644732e-05
2.049492e-05
1.9563864e-06
1.8628496e-05
-1.4987323e-06
7.0722758e-06
-3.8208141e-06
4.4138181e-06
5.811034e-07
-4.9508147e-06
-1.5237208e-06
-6.6045116e-06
4.5248481e-06
-5.4987062e-06
-2.7331814e-06
-5.6163398e-06
2.4947033e-07
-4.7102091e-06
-2.3760341e-06
-4.9062676e-06
3.8887253e-07
-4.6641342e-06
-6.2093451e-07
-4.6452476e-06
-3.5041512e-08
-4.0436787e-06
-1.5303883e-06
-3.0546726e-06
-2.598692e-06
-1.6115676e-06
-3.8057314e-06
-2.3738818e-07
-3.6300691e-06
9.5011107e-07
-3.1285254e-06
1.7908634e-06
-2.2185462e-06
2.3729714e-06
-1.5290603e-06
2.7184871e-06
-9.0699156e-07
2.8984877e-06
-4.7369844e-07
2.9377295e-06
-1.0933146e-07
2.8590345e-06
1.9494095e-07
2.6842976e-06
4.4008009e-07
2.4561425e-06
5.7185318e-07
2.2218307e-06
5.8039086e-07
2.0152412e-06
5.0298631e-07
1.8178898e-06
4.7793214e-07
1.5773548e-06
5.9352061e-07
1.2711105e-06
7.6986606e-07
9.2588713e-07
8.7631842e-07
5.8596251e-07
8.6730636e-07
2.981051e-07
7.3687993e-07
1.1046974e-07
4.8070319e-07
7.3319958e-08
9.1952811e-08
2.3298419e-07
-4.1969192e-07
6.3707858e-07
-1.0562692e-06
1.3436289e-06
-1.8430715e-06
2.3955255e-06
-2.7381676e-06
3.7355454e-06
-3.4902509e-06
5.3230491e-06
-4.1470016e-06
7.1892823e-06
-4.8869053e-06
9.3193469e-06
-5.5865996e-06
1.167251e-05
-6.1773108e-06
1.4179543e-05
-6.5821529e-06
1.6754624e-05
-6.7563485e-06
1.9293497e-05
-6.6482981e-06
2.1729134e-05
-6.3649785e-06
2.4008311e-05
-5.9328501e-06
2.6429501e-05
-6.4170731e-06
2.8214883e-05
-4.734543e-06
2.7284338e-05
3.0080721e-06
2.3756365e-05
1.0016645e-05
1.8493011e-05
1.4377068e-05
1.2219005e-05
1.6706407e-05
5.984716e-06
1.6181046e-05
8.3403528e-07
1.2977758e-05
-2.3112219e-06
7.5855615e-06
-3.1347556e-06
1.6264688e-06
-3.0094e-06
-7.4655539e-07
-4.61762e-06
4.0258863e-06
-8.0592989e-06
9.3725077e-06
-1.0010192e-05
5.6759972e-06
-8.6285419e-06
-3.3963956e-06
-5.4223139e-06
-8.4819157e-06
-2.4414556e-06
-7.9265365e-06
-4.82396e-07
-5.1933952e-06
5.9835518e-07
-2.842305e-06
1.2610542e-06
-1.7147596e-06
1.8167088e-06
-1.4273491e-06
2.3597642e-06
-1.3996341e-06
2.8823608e-06
-1.3517262e-06
3.3682118e-06
-1.2596547e-06
3.8295369e-06
-1.2013027e-06
4.2986552e-06
-1.2321921e-06
4.7917889e-06
-1.3135494e-06
5.2836748e-06
-1.3403514e-06
5.6979182e-06
-1.1789933e-06
5.9184023e-06
-7.2757074e-07
5.7956711e-06
1.0093512e-07
5.1718033e-06
1.3420773e-06
3.9544203e-06
2.8482224e-06
2.1842179e-06
4.2910055e-06
2.9748098e-08
5.340421e-06
-2.3190257e-06
5.9130983e-06
-4.742373e-06
6.1632726e-06
-7.1608391e-06
6.1964346e-06
-9.509255e-06
6.0538428e-06
-1.1744794e-05
5.7916867e-06
-1.384309e-05
5.4589269e-06
-1.5794614e-05
5.0957007e-06
-1.7597707e-05
4.7234826e-06
-1.9255137e-05
4.3550454e-06
-2.077305e-05
4.0001058e-06
-2.2157601e-05
3.6591672e-06
-2.3415483e-05
3.3342342e-06
-2.4552905e-05
3.0242027e-06
-2.5574998e-05
2.7264084e-06
-2.6487021e-05
2.4414211e-06
-2.7294003e-05
2.1686393e-06
-2.8000711e-05
1.907514e-06
-2.8612499e-05
1.6598037e-06
-2.913489e-05
1.4261245e-06
-2.9573072e-05
1.205637e-06
-2.9932303e-05
9.9869565e-07
-3.0217773e-05
8.0520978e-07
-3.043417e-05
6.2389158e-07
-3.0585925e-05
4.5408709e-07
-3.0677347e-05
2.9561166e-07
-3.0712195e-05
1.4695231e-07
-3.0693078e-05
5.6127564e-09
-3.0621704e-05
-1.3076516e-07
-3.0500011e-05
-2.6236983e-07
-3.0330219e-05
-3.8840998e-07
-3.0114395e-05
-5.0897172e-07
-2.9854285e-05
-6.2504027e-07
-2.955143e-05
-7.3706283e-07
-2.920732e-05
-8.452331e-07
-2.8823038e-05
-9.5072993e-07
-2.8399897e-05
-1.0528069e-06
-2.7939249e-05
-1.1514171e-06
-2.7442096e-05
-1.2476304e-06
-2.6909842e-05
-1.3401763e-06
-2.6344058e-05
-1.4287077e-06
-2.574601e-05
-1.5141206e-06
-2.5117419e-05
-1.5950327e-06
-2.4460245e-05
-1.6708462e-06
-2.3776118e-05
-1.7425683e-06
-2.3067105e-05
-1.8088155e-06
-2.2335537e-05
-1.8689572e-06
-2.1583325e-05
-1.9241901e-06
-2.081279e-05
-1.9732477e-06
-2.0026458e-05
-2.0156235e-06
-1.9226393e-05
-2.052642e-06
-1.8414924e-05
-2.0834294e-06
-1.7594606e-05
-2.1074645e-06
-1.6767492e-05
-2.1261096e-06
-1.5936003e-05
-2.1383121e-06
-1.510246e-05
-2.1444219e-06
-1.4269197e-05
-2.1444211e-06
-1.343888e-05
-2.1374422e-06
-1.2614443e-05
-2.1228767e-06
-1.1799366e-05
-2.0993522e-06
-1.0997972e-05
-2.0647279e-06
-1.0215866e-05
-2.015793e-06
-9.4602085e-06
-1.9486113e-06
-8.7404741e-06
-1.8573151e-06
-8.0691328e-06
-1.7342537e-06
-7.4624043e-06
-1.5698723e-06
-6.9391689e-06
-1.3568433e-06
-6.5211624e-06
-1.0857973e-06
-6.2128874e-06
-8.0389813e-07
-6.009773e-06
-5.4230222e-07
-5.9001325e-06
-3.1682876e-07
-5.8968537e-06
-5.3915752e-08
-5.9382568e-06
4.6944563e-08
-6.0038023e-06
8.8587265e-08
-6.1863424e-06
4.0322617e-07
-6.4614489e-06
6.9614469e-07
-6.7422402e-06
7.6999824e-07
-6.7671467e-06
1.4461975e-07
-6.2326853e-06
-1.3093445e-06
-5.1286604e-06
-2.8186475e-06
-3.6938379e-06
-3.7058477e-06
-2.1854883e-06
-3.9123881e-06
-7.6583334e-07
-3.6876838e-06
5.0627881e-07
-3.3063331e-06
1.666565e-06
-3.012741e-06
2.7800507e-06
-2.8891893e-06
3.8760237e-06
-2.8462777e-06
4.9354006e-06
-2.7516425e-06
5.9497235e-06
-2.6334889e-06
6.9258256e-06
-2.5334269e-06
7.8699806e-06
-2.4500408e-06
8.7838187e-06
-2.3711987e-06
9.6630195e-06
-2.2816549e-06
1.0481927e-05
-2.1249508e-06
1.1195939e-05
-1.8477775e-06
1.1789707e-05
-1.5302539e-06
1.2311048e-05
-1.3422e-06
1.2829954e-05
-1.3462686e-06
1.3352875e-05
-1.3605492e-06
1.3888749e-05
-1.396326e-06
1.4470789e-05
-1.5198068e-06
1.5135702e-05
-1.7387944e-06
1.5933274e-05
-2.0847359e-06
1.699197e-05
-2.772194e-06
1.8456844e-05
-3.8572607e-06
2.0293403e-05
-4.832676e-06
2.2452238e-05
-5.6678908e-06
2.4998615e-05
-6.6851132e-06
2.8040765e-05
-8.0010587e-06
3.1685198e-05
-9.6125038e-06
3.5968505e-05
-1.1347218e-05
4.0543341e-05
-1.21522e-05
4.4360228e-05
-1.0108184e-05
4.4994211e-05
-1.3260787e-06
3.9557859e-05
1.5480374e-05
2.8158592e-05
3.1352723e-05
1.569459e-05
3.2958922e-05
3.7281728e-06
3.0594913e-05
-1.4208545e-06
1.2221303e-05
-4.9918349e-06
7.9847983e-06
9.8754928e-07
-6.3384117e-06
-1.9841285e-06
-8.3468377e-06
6.5332741e-06
-6.911549e-06
-4.16847e-06
-7.0657119e-06
4.0363348e-07
-5.9397724e-06
-3.5019735e-06
-6.2336984e-06
6.8279864e-07
-5.9364754e-06
-9.1815729e-07
-5.9008405e-06