/*--------------------------------*- C++ -*----------------------------------*\
| =========                 |                                                 |
| \\      /  F ield         | OpenFOAM: The Open Source CFD Toolbox           |
|  \\    /   O peration     | Version:  2.4.0                                 |
|   \\  /    A nd           | Web:      www.OpenFOAM.org                      |
|    \\/     M anipulation  |                                                 |
\*---------------------------------------------------------------------------*/
FoamFile
{
    version     2.0;
    format      ascii;
    class       volScalarField;
    location    "5000";
    object      omega;
}
// * * * * * * * * * * * * * * * * * * * * * * * * * * * * * * * * * * * * * //

dimensions      [0 0 -1 0 0 0 0];

internalField   nonuniform List<scalar> 
9793
(
1.6457239
1.6313756
1.6165829
1.6014063
1.5859016
1.5773291
1.5632557
1.548787
1.5339838
1.5189021
1.5035946
1.4881095
1.4724924
1.456785
1.4410392
1.4252638
1.4094328
1.3935178
1.3774923
1.3613327
1.3450196
1.3285372
1.3118739
1.2950235
1.2779844
1.2607599
1.2433587
1.2257775
1.2080967
1.1904339
1.1729045
1.1556107
1.1386127
1.1220956
1.1062575
1.0910067
1.0764972
1.0628895
1.0503839
1.0392138
1.0296957
1.0222042
1.6070333
1.6010006
1.5939712
1.5859803
1.5770905
1.5673464
1.5567934
1.5454655
1.5334422
1.5208256
1.5077016
1.4941503
1.4802454
1.4660464
1.4516082
1.4369817
1.4222133
1.4073465
1.3924208
1.3774849
1.3625475
1.3475845
1.3325702
1.3174806
1.3022943
1.2869935
1.2715638
1.2559943
1.2402785
1.224414
1.2084021
1.192249
1.1759491
1.1595729
1.1432255
1.127009
1.1109965
1.095255
1.0800846
1.0654458
1.0513696
1.0379877
1.0254465
1.0139287
1.0036479
0.9948937
0.98800948
1.5323819
1.5266827
1.5200239
1.5124559
1.504023
1.4947681
1.4847373
1.4739681
1.4625313
1.450543
1.4380867
1.4252384
1.4120688
1.3986373
1.3849961
1.3711936
1.3572745
1.3432796
1.3292464
1.3152208
1.3012112
1.2871958
1.2731515
1.2590565
1.2448914
1.23064
1.216289
1.2018277
1.1872499
1.1725523
1.1577351
1.1428024
1.1277472
1.1126311
1.0975482
1.082583
1.0677872
1.0532855
1.0393933
1.0259292
1.0129935
1.0007072
0.98920273
0.97864616
0.96923104
0.96122051
0.95492722
1.4684563
1.466072
1.4626402
1.4582179
1.4528816
1.4466336
1.4395253
1.4315993
1.4228967
1.4134631
1.4033352
1.3925742
1.3813081
1.3696146
1.3575634
1.3452201
1.3326438
1.31988
1.3069755
1.2939727
1.2809105
1.2678244
1.2547562
1.241714
1.2286783
1.215628
1.2025435
1.1894071
1.176204
1.1629218
1.149551
1.1360851
1.1225211
1.1088583
1.0950995
1.0812366
1.0673237
1.0534419
1.0396538
1.0260333
1.0128315
1.0001024
0.98778073
0.97595512
0.96473644
0.95424303
0.94462418
0.93605367
0.92876842
0.92305094
1.396149
1.3937761
1.3905101
1.3863325
1.3812616
1.3753444
1.3686287
1.361159
1.3529749
1.3441223
1.3346267
1.3245568
1.31404
1.3031315
1.2918983
1.2804033
1.2686986
1.2568316
1.2448445
1.2327754
1.2206602
1.2085311
1.1964255
1.1843507
1.172289
1.1602213
1.1481298
1.1359987
1.1238147
1.1115669
1.0992466
1.0868485
1.0743696
1.0618093
1.0491687
1.0364391
1.023667
1.0109181
0.99825132
0.98582867
0.97389815
0.96229536
0.95108547
0.94034511
0.93017092
0.92066654
0.91196427
0.90421845
0.89764047
0.89248357
0.88876251
0.88636606
0.88512567
1.3263605
1.3240665
1.3209774
1.3169902
1.312171
1.306568
1.3002288
1.2931979
1.2855151
1.2772279
1.2683349
1.2589744
1.249186
1.2390514
1.2286297
1.2179772
1.2071436
1.1961676
1.1850881
1.1739402
1.1627555
1.1515625
1.1403948
1.1292592
1.1181396
1.1070188
1.0958813
1.0847132
1.0735033
1.0622424
1.0509236
1.0395426
1.028097
1.0165855
1.0050077
0.99335395
0.981663
0.96999591
0.95846555
0.94732271
0.93653844
0.9260589
0.91594861
0.90627673
0.89712758
0.88859133
0.88078416
0.87384183
0.86795133
0.86333795
0.86001351
0.85787757
0.85677886
1.2592265
1.2570546
1.2540365
1.2502213
1.2456498
1.2403638
1.2344072
1.2278214
1.2206462
1.2129224
1.2046573
1.1959817
1.1869154
1.177555
1.1679355
1.15811
1.1481215
1.1380105
1.1278101
1.1175512
1.1072607
1.0969643
1.086693
1.0764519
1.0662281
1.0560072
1.0457757
1.0355228
1.0252395
1.014919
1.0045558
0.99414652
0.9836887
0.97317995
0.96261872
0.95199569
0.94135114
0.93078943
0.92052144
0.91059977
0.9009273
0.89154854
0.88251819
0.87389369
0.86574646
0.85815359
0.8512159
0.84505171
0.83982499
0.83573458
0.83278994
0.83090143
0.82993461
1.1866941
1.189468
1.1923331
1.1945314
1.1958625
1.1963181
1.1959244
1.1945974
1.1925229
1.1896323
1.1860185
1.1817179
1.176768
1.171209
1.165079
1.1584198
1.1512571
1.1436543
1.1356467
1.1273046
1.1186778
1.1098271
1.1007959
1.0916254
1.0823429
1.0729796
1.0635631
1.0541157
1.0446657
1.0352407
1.0258468
1.0164723
1.007107
0.99774052
0.98836474
0.97897313
0.96956013
0.96012148
0.95065357
0.94115334
0.93161828
0.92205058
0.91245088
0.90290223
0.8935914
0.88458345
0.87578653
0.86722105
0.85893039
0.85095986
0.84335692
0.83618193
0.82950052
0.82339971
0.8179819
0.81338974
0.80979725
0.80721213
0.80555535
0.80470883
1.1269953
1.1295201
1.1320535
1.1339193
1.134967
1.1352083
1.1346668
1.1334218
1.1314169
1.1287118
1.1253383
1.1213319
1.116729
1.111569
1.1058879
1.0997327
1.0931018
1.0861137
1.0787548
1.0710973
1.0631731
1.0550638
1.0467839
1.0383683
1.0298523
1.0212642
1.0126273
1.0039688
0.99531085
0.98667885
0.97808459
0.96951979
0.96097388
0.95244197
0.94391589
0.9353914
0.92686317
0.91832674
0.90977844
0.90121621
0.89264586
0.88408895
0.87558239
0.86728653
0.859228
0.85134423
0.84363618
0.83613955
0.82889124
0.82192893
0.81529231
0.80903282
0.80320643
0.79788817
0.79316632
0.78916412
0.78603276
0.78377849
0.78233243
0.78159183
1.0650722
1.0669726
1.0689903
1.0712995
1.0737439
1.0761801
1.0779682
1.0789894
1.0792635
1.0788284
1.0776074
1.0756799
1.0730861
1.0698703
1.0660758
1.0617435
1.0569149
1.0516252
1.0459457
1.0398832
1.0334416
1.0266727
1.019656
1.0123974
1.004934
0.99731624
0.9895849
0.9817603
0.97387341
0.96594179
0.95800712
0.95008594
0.94220625
0.93437174
0.92658225
0.9188278
0.91110421
0.90340374
0.89572164
0.88805293
0.88039375
0.87274562
0.86511605
0.85754002
0.85007666
0.84279096
0.83567972
0.82868891
0.82182466
0.81511723
0.80859779
0.80229748
0.79624822
0.79048391
0.78504876
0.77999084
0.77537486
0.77127679
0.7678026
0.76508284
0.76312245
0.76186158
0.7612112
1.0138862
1.0156958
1.0175908
1.0196156
1.0218068
1.0240971
1.0258574
1.0269461
1.0273607
1.0271266
1.0261487
1.0244851
1.0221889
1.0193081
1.0158865
1.0119641
1.0075789
1.0027701
0.99755198
0.9919989
0.98608231
0.97984494
0.97333216
0.96660615
0.95968946
0.95264754
0.94550182
0.93829087
0.93104108
0.92378306
0.91653583
0.909321
0.90216568
0.89507525
0.88804287
0.8810643
0.87413012
0.86723559
0.86037453
0.8535463
0.84675477
0.84001883
0.83336487
0.82687207
0.82053752
0.81433485
0.80818542
0.80211825
0.7961614
0.79034217
0.78468743
0.77922412
0.77397992
0.7689842
0.76427526
0.75989451
0.75589768
0.75234987
0.74934162
0.74698486
0.74528299
0.74418395
0.74361064
0.96693071
0.96849773
0.97017296
0.97196276
0.97391006
0.97597657
0.9775795
0.97858769
0.9789936
0.97880755
0.97801977
0.97664256
0.97469843
0.97221629
0.96922764
0.96576417
0.96185822
0.95754715
0.95281952
0.94774952
0.94236491
0.93667922
0.93071989
0.92457268
0.91827368
0.91186484
0.90535947
0.89880992
0.89224087
0.88568623
0.87915572
0.87267127
0.86625566
0.85991861
0.85365015
0.84744614
0.84129794
0.83520367
0.82916351
0.82318846
0.81729761
0.81153455
0.8059245
0.80044127
0.7950473
0.78968152
0.78435694
0.77910157
0.77394167
0.76890168
0.76400548
0.75927682
0.75474004
0.7504207
0.74635202
0.74256948
0.73912079
0.73606116
0.7334671
0.73143348
0.72996184
0.72900665
0.7285012
0.9243945
0.92570706
0.92712294
0.92863918
0.93029773
0.93208132
0.93346208
0.93432361
0.93465495
0.93446034
0.93373953
0.93250097
0.9307601
0.92853832
0.92586045
0.92275259
0.91924311
0.91536173
0.91112958
0.90657999
0.90173724
0.89663967
0.89133074
0.88585511
0.88025061
0.87455435
0.86879434
0.86299988
0.85719642
0.85140739
0.84565142
0.83994593
0.83430962
0.82874837
0.82325696
0.81783276
0.8124751
0.8071918
0.80199432
0.79690891
0.79196079
0.7871288
0.78239712
0.77770134
0.77303394
0.76838793
0.76377817
0.7592293
0.75476481
0.75040656
0.74617577
0.74209344
0.73818087
0.73446026
0.73096014
0.72771059
0.72475186
0.72213001
0.71990864
0.71816674
0.71690364
0.71607928
0.71563597
0.88678302
0.88782845
0.88896238
0.8901814
0.89152203
0.89297571
0.89407765
0.89473122
0.89492092
0.89465333
0.89393219
0.89276564
0.89116599
0.88915017
0.88673821
0.88395172
0.88081508
0.87735392
0.87359091
0.86955303
0.86526289
0.8607582
0.85608122
0.85126955
0.84635666
0.84137398
0.83634636
0.83129683
0.82624623
0.82121292
0.81621318
0.81126171
0.80637595
0.80156389
0.79682383
0.79216473
0.78759052
0.78312377
0.77877487
0.77452643
0.77036367
0.76625145
0.76216409
0.75809987
0.75405857
0.75003719
0.74604985
0.74211866
0.73826463
0.73450722
0.73086523
0.72735709
0.72400125
0.72081673
0.71782771
0.71505915
0.71254426
0.71032055
0.7084396
0.70696547
0.70589496
0.70519256
0.70480851
0.85398462
0.85480352
0.85569468
0.8566548
0.857715
0.85886784
0.8597093
0.86017282
0.86020579
0.85985912
0.85912107
0.85800124
0.85651192
0.85466861
0.85248891
0.84999152
0.84719747
0.84412853
0.84080549
0.837251
0.83348425
0.82953831
0.82545041
0.82125231
0.81697238
0.81263712
0.80826788
0.80388424
0.79950429
0.79514527
0.7908235
0.7865528
0.78235566
0.77824186
0.77421028
0.77029015
0.76646794
0.76272943
0.75906457
0.75544986
0.751858
0.74829201
0.74474959
0.74123023
0.73773442
0.73426058
0.73082172
0.72743753
0.72412662
0.72090617
0.71779269
0.71480213
0.71195017
0.70925288
0.70673029
0.70440239
0.70229572
0.70043976
0.69887494
0.69765094
0.69676175
0.69617572
0.69585021
0.82545357
0.82609245
0.82679098
0.82754606
0.82838473
0.82929839
0.82993989
0.83023945
0.83018657
0.82978949
0.8290547
0.82799169
0.82661226
0.82493078
0.82296318
0.82072605
0.81823782
0.81551737
0.81258289
0.80945398
0.80614722
0.80269118
0.79911807
0.79545503
0.7917269
0.78795765
0.78416685
0.78037193
0.77658999
0.77284071
0.76913869
0.76549516
0.76194359
0.75848398
0.75510751
0.75180179
0.74856211
0.74536411
0.74219295
0.73905142
0.73593614
0.73284678
0.729783
0.72674513
0.72373422
0.72074958
0.71780306
0.71491209
0.71209296
0.70936076
0.70672983
0.70421365
0.70182518
0.69957799
0.69748787
0.69556991
0.69384454
0.69233379
0.69106754
0.69008114
0.68936573
0.68889302
0.68862698
0.8006602
0.80115342
0.80169512
0.80228385
0.80294373
0.80366533
0.80415054
0.80433546
0.80421715
0.80379954
0.80308934
0.80209565
0.80082952
0.79930418
0.79753415
0.79553447
0.79332173
0.79091287
0.78832418
0.78557314
0.78267463
0.77965368
0.77653835
0.77335169
0.77011803
0.76685975
0.76359406
0.7603353
0.75710148
0.75391658
0.75078456
0.74771163
0.74470233
0.74175795
0.73887562
0.73602347
0.73320689
0.73042473
0.72767383
0.72495341
0.72226242
0.7196007
0.71696854
0.71436674
0.71179673
0.70925854
0.70676304
0.70432547
0.70195988
0.69967961
0.69749691
0.69542259
0.69346726
0.69164274
0.68995961
0.68842849
0.68706477
0.68588353
0.6849041
0.68414651
0.6836003
0.68324005
0.68303571
0.77913041
0.77951008
0.77992658
0.78038507
0.78090512
0.78147546
0.78183999
0.78194091
0.78177851
0.78135644
0.78068106
0.779761
0.77860665
0.77723038
0.77564561
0.77386618
0.77190725
0.76978413
0.76751154
0.76510504
0.76257802
0.75995247
0.75725255
0.75449807
0.75171822
0.74892887
0.74614143
0.74336675
0.74061484
0.73789299
0.73520979
0.73257356
0.72997413
0.72741617
0.72490237
0.72242698
0.71998854
0.7175857
0.71521722
0.71288249
0.71058111
0.7083133
0.70607987
0.70388198
0.70172131
0.69959873
0.6975243
0.69551088
0.69357055
0.69171567
0.6899558
0.68829884
0.68675448
0.68533335
0.68403761
0.68287637
0.68186167
0.68100074
0.68030087
0.67976522
0.67938677
0.67914035
0.67900034
0.76032655
0.76065074
0.76100414
0.76138499
0.76181222
0.76227525
0.76255545
0.76259605
0.76241012
0.76199763
0.76136571
0.76052322
0.75948039
0.75824895
0.75684137
0.75527033
0.75354944
0.7516923
0.74971187
0.74762165
0.74543324
0.7431656
0.74083958
0.73847337
0.73608133
0.73367771
0.73127423
0.72888194
0.72650653
0.72414587
0.72181267
0.71951651
0.71726231
0.71505214
0.71288503
0.71075875
0.70867186
0.70662341
0.70461276
0.70263958
0.70070389
0.69880646
0.69694872
0.69513181
0.69335778
0.69162865
0.68995372
0.68834261
0.68680678
0.68535855
0.68400231
0.68274412
0.6815963
0.68056585
0.67964027
0.67883899
0.6781691
0.67762497
0.67719969
0.6768963
0.6766905
0.67655502
0.67647115
0.74372422
0.74402977
0.74436
0.74470692
0.74508839
0.74549609
0.74573836
0.74576785
0.74559652
0.74522566
0.7446625
0.7439156
0.74299462
0.74191036
0.74067418
0.73929748
0.73779241
0.73617101
0.73444474
0.73262546
0.73072338
0.72875502
0.72673889
0.72469123
0.72261627
0.72052807
0.71843911
0.71635997
0.71429895
0.71226139
0.71025429
0.70828412
0.7063571
0.70447546
0.70263811
0.70084359
0.69909088
0.69737975
0.69570991
0.6940812
0.69249422
0.6909506
0.68945223
0.68799942
0.68659543
0.6852442
0.683953
0.68272687
0.68158144
0.68052762
0.67955854
0.67868617
0.67793025
0.67728401
0.67676168
0.67636279
0.67606518
0.67584708
0.67569367
0.67559452
0.67551736
0.6754569
0.67540395
0.72996203
0.73031674
0.73069493
0.73092576
0.73097242
0.73083807
0.7305275
0.73004708
0.72940455
0.72860861
0.72766902
0.72659602
0.72539991
0.72409163
0.72268207
0.72118154
0.71960085
0.71794929
0.71624158
0.71449401
0.71272048
0.71093116
0.70913694
0.7073472
0.70557059
0.70381477
0.7020861
0.70039064
0.69873378
0.69712135
0.69555555
0.69403538
0.69255996
0.69112884
0.689743
0.68840155
0.68710457
0.68585396
0.68465267
0.68350176
0.68239946
0.68135396
0.68037053
0.67944999
0.67859403
0.67783403
0.67716951
0.67661652
0.67618385
0.67586726
0.67563698
0.67550118
0.67541897
0.67539533
0.67541976
0.6754828
0.67556792
0.67564317
0.67569204
0.67570293
0.67568647
0.67562698
0.71703511
0.71735906
0.71770469
0.71792155
0.71797865
0.71787742
0.71762214
0.71721853
0.7166735
0.71599488
0.71519148
0.71427253
0.71324737
0.71212593
0.71091807
0.70963318
0.70828111
0.70687041
0.70541424
0.70392716
0.70242135
0.70090723
0.69939481
0.69789234
0.69640753
0.69494723
0.69351716
0.69212272
0.69076886
0.68946116
0.68820148
0.68698848
0.68582231
0.68470357
0.68363465
0.68261134
0.6816359
0.68071339
0.67984708
0.67903329
0.67826915
0.67757756
0.67695772
0.67642132
0.67599083
0.67567161
0.67543663
0.67529877
0.6752233
0.67522793
0.67529053
0.67543815
0.67567006
0.67596184
0.67628712
0.67661645
0.67691265
0.67714639
0.67730408
0.67737877
0.67738613
0.67730857
0.7058433
0.70613354
0.70644373
0.70664346
0.7067063
0.70663317
0.70642763
0.70609465
0.70564032
0.70507159
0.70439635
0.70362291
0.70275972
0.70181576
0.70079997
0.69972091
0.69858757
0.69740788
0.69619363
0.69495795
0.69371146
0.69246361
0.69122353
0.68999878
0.68879666
0.68762305
0.68648242
0.68538005
0.6843209
0.68331053
0.68234904
0.68143443
0.68057005
0.67975775
0.67899992
0.67828344
0.67762238
0.67702535
0.67649058
0.67602534
0.67564913
0.6753617
0.67514523
0.67501398
0.67495191
0.67495846
0.67502392
0.67518248
0.67544049
0.67579518
0.67622947
0.676737
0.67730719
0.67791781
0.67853828
0.67912889
0.67963681
0.68002959
0.68029616
0.68043416
0.680468
0.68038512
0.69631497
0.69656928
0.6968417
0.69702148
0.69708624
0.69703666
0.6968757
0.69660758
0.69623763
0.69577196
0.69521757
0.69458191
0.69387262
0.69309771
0.69226522
0.69138298
0.69045926
0.68950148
0.6885202
0.68752742
0.68653162
0.68554129
0.68456507
0.68361007
0.68268342
0.68178874
0.68092903
0.68011149
0.67934133
0.67862321
0.67795191
0.67732725
0.67676136
0.67625359
0.67580271
0.67541875
0.67511976
0.67488785
0.67471966
0.67462341
0.67458885
0.67460326
0.67467422
0.67483426
0.67508342
0.67543419
0.67587584
0.67641104
0.6770398
0.67775836
0.6785561
0.67941937
0.68033074
0.68126298
0.68217929
0.68303089
0.68375111
0.68430361
0.68467938
0.68488076
0.68493931
0.68484808
0.68838811
0.68860484
0.68883774
0.68899535
0.68905879
0.68902894
0.68890804
0.68869967
0.68840841
0.68803965
0.68759954
0.68709474
0.68653217
0.68591868
0.68526154
0.68456804
0.68384591
0.68310218
0.68234627
0.68158932
0.68083557
0.68009462
0.67937537
0.67868437
0.67802795
0.67740413
0.67681693
0.67628067
0.67579756
0.67536865
0.67499992
0.67470506
0.67447572
0.6743038
0.6741924
0.67414132
0.67414275
0.67418005
0.67427933
0.67445274
0.67470242
0.6750403
0.67546357
0.67598029
0.67659311
0.67730643
0.67811808
0.67902617
0.68002704
0.68111402
0.68227617
0.68349598
0.68475114
0.68600828
0.68722336
0.68833833
0.68927286
0.68998655
0.6904724
0.69073743
0.6908201
0.69071826
0.68200944
0.68218746
0.68237959
0.68251346
0.68257244
0.68255935
0.6824746
0.68232145
0.68210387
0.68182659
0.68149501
0.6811151
0.68069306
0.6802339
0.6797449
0.67923322
0.67870618
0.67817038
0.67763418
0.67710728
0.6765852
0.67608761
0.67562195
0.67519241
0.67480267
0.67446062
0.67418226
0.67396286
0.67379668
0.67368586
0.67363229
0.67362891
0.67365491
0.67373163
0.673872
0.67407224
0.6743463
0.67469221
0.6751123
0.675612
0.67619583
0.67687097
0.67764261
0.67851558
0.67949167
0.68057207
0.68175519
0.68303748
0.68441305
0.68587259
0.68740305
0.68898328
0.69058657
0.69217329
0.69369172
0.69507421
0.69622643
0.69710376
0.69770119
0.69803045
0.69813713
0.6980231
0.67713413
0.67727274
0.67742321
0.67753233
0.67758245
0.67758515
0.67753257
0.67743056
0.67728232
0.67709191
0.67686402
0.67660419
0.67631727
0.67600505
0.67567816
0.67534342
0.67500731
0.67467565
0.67435573
0.67405353
0.67378529
0.67356366
0.67338059
0.67323968
0.67314355
0.67309611
0.67309288
0.67311638
0.67318675
0.67331416
0.67349602
0.67373886
0.67404578
0.6744159
0.67485302
0.67535851
0.67593832
0.67659595
0.67733526
0.67816116
0.67907903
0.68009504
0.68121667
0.68244806
0.68378988
0.68524145
0.68680015
0.68846093
0.69021601
0.69205368
0.69395838
0.69590513
0.69786284
0.69978551
0.7016134
0.70326904
0.70464357
0.70568792
0.70639913
0.70679348
0.70692435
0.70679713
0.70665751
0.70625145
0.70659574
0.67372573
0.67382459
0.67393287
0.67401583
0.67405741
0.67406867
0.67404486
0.67399107
0.67390869
0.67380154
0.67367372
0.67353052
0.67337443
0.67321847
0.67306968
0.67293031
0.67280539
0.6726992
0.67261741
0.6725651
0.67254895
0.67255516
0.67258945
0.67266859
0.67279413
0.67296859
0.67319871
0.67348758
0.67383416
0.67424018
0.67470594
0.67523439
0.67582878
0.67649139
0.67722559
0.67803445
0.67892248
0.67989424
0.68095458
0.68210887
0.6833632
0.68472377
0.68619928
0.68779343
0.68950573
0.69133406
0.69327442
0.69532018
0.69746175
0.699685
0.70197179
0.70429312
0.70661342
0.70888011
0.71102515
0.71296096
0.71456358
0.71577916
0.71660694
0.71706757
0.717223
0.71708169
0.71692172
0.71644133
0.71674006
0.67175627
0.6718153
0.67188079
0.6719355
0.67197416
0.67199992
0.67200787
0.67201185
0.67200437
0.67199144
0.67197652
0.67196447
0.67195454
0.67195887
0.67196803
0.6719931
0.67204069
0.67211379
0.67221795
0.672358
0.67253782
0.67276713
0.67304477
0.6733742
0.67375768
0.674197
0.67469517
0.67525462
0.6758763
0.67656076
0.67730893
0.67812337
0.67900732
0.67996406
0.68099737
0.68211123
0.68331026
0.68459954
0.6859846
0.68747138
0.68906664
0.69077695
0.69261205
0.69457524
0.69666485
0.69887738
0.70120743
0.70364672
0.70618377
0.70880203
0.71148069
0.71418654
0.71687941
0.7194999
0.72197128
0.72419562
0.72603318
0.72742503
0.72837273
0.72890114
0.72908154
0.72892493
0.72874277
0.72818273
0.7284197
0.67120635
0.67122557
0.67124645
0.67127132
0.67130369
0.67134273
0.6713856
0.67143615
0.67149397
0.67156117
0.67164023
0.67173468
0.6718462
0.67198032
0.67214269
0.67233639
0.67256571
0.67283473
0.67314734
0.67350693
0.67391638
0.67438035
0.67490077
0.67548001
0.67612005
0.67682238
0.67758869
0.67842041
0.67931855
0.68028308
0.6813151
0.68241748
0.68359374
0.68484773
0.68618372
0.68760634
0.68912068
0.69073236
0.6924475
0.69427261
0.69621515
0.69828216
0.70048441
0.70282484
0.70530055
0.70790669
0.71063641
0.71347974
0.71642326
0.71944791
0.72253011
0.72563229
0.72870946
0.73169518
0.73450361
0.73702611
0.73910652
0.7406804
0.74175189
0.74234982
0.74255568
0.74238221
0.74217674
0.74153365
0.74171786
0.67200447
0.67200824
0.6720317
0.67207893
0.67214907
0.67224342
0.67236283
0.67250887
0.67268349
0.67288938
0.6731289
0.67340545
0.67372307
0.67408554
0.67449659
0.67496047
0.67548017
0.67605779
0.6766954
0.67739554
0.67815984
0.67899013
0.67988789
0.68085428
0.68189029
0.68299669
0.68417408
0.68542185
0.68674108
0.68813513
0.68960792
0.69116382
0.69280763
0.69454454
0.69638021
0.69832081
0.7003731
0.70254414
0.70484216
0.70727463
0.70985347
0.71258125
0.7154538
0.71846491
0.72160626
0.7248661
0.72822904
0.73167337
0.73517265
0.73868478
0.74215971
0.74552367
0.74868129
0.75151284
0.75384499
0.75560737
0.75680699
0.75747638
0.75770821
0.75751602
0.75728631
0.75655728
0.75669427
0.67417401
0.67414643
0.67416201
0.6742187
0.67431635
0.67445553
0.67463702
0.67486208
0.67513222
0.67544947
0.6758161
0.6762347
0.6767083
0.67724037
0.67783413
0.67849373
0.67922133
0.68001782
0.68088444
0.68182256
0.68283296
0.68391687
0.68507522
0.68630869
0.68761779
0.6890027
0.69046363
0.69199933
0.69361085
0.69530197
0.69707714
0.69894125
0.70089964
0.70295808
0.70512281
0.70740059
0.70979883
0.71232519
0.71498869
0.71779726
0.72076401
0.72389114
0.72717321
0.7306026
0.73416948
0.73786024
0.74165744
0.74553662
0.74946838
0.7534058
0.75729362
0.76105039
0.76457072
0.76772336
0.77031708
0.77227505
0.77360756
0.77435051
0.77460884
0.77439571
0.77414098
0.77332407
0.7734137
0.79165671
0.79140838
0.67775585
0.6776922
0.67770041
0.67776599
0.67789095
0.67807531
0.67831944
0.67862415
0.67899049
0.67941991
0.67991432
0.68047575
0.68110658
0.68180985
0.68258821
0.68344566
0.68438346
0.68540134
0.68649967
0.68767892
0.688939
0.69028051
0.69170381
0.69320905
0.69479628
0.69646517
0.69821551
0.70004544
0.70195591
0.70395119
0.70603626
0.70821653
0.71049794
0.71288684
0.71539007
0.71801503
0.72076979
0.72366265
0.72670343
0.72990057
0.73326842
0.73680881
0.740515
0.7443779
0.7483861
0.75252409
0.75677229
0.76110331
0.76548469
0.76986445
0.77418186
0.77834746
0.78224532
0.78573218
0.78859815
0.79075936
0.79222989
0.79304857
0.79333391
0.79309723
0.79281709
0.79191473
0.79195096
0.81205954
0.81176165
0.68275218
0.68266368
0.68265806
0.68273195
0.68288417
0.68311415
0.6834217
0.68380711
0.68427092
0.68481402
0.68543789
0.68614403
0.68693429
0.6878113
0.68877718
0.68983572
0.69098732
0.69223053
0.6935648
0.69498981
0.6965046
0.69810915
0.69980327
0.70158655
0.70345857
0.7054185
0.70746574
0.70959779
0.71181552
0.71412369
0.7165278
0.71903387
0.72164842
0.72437841
0.7272313
0.73021517
0.73333879
0.73661108
0.74004277
0.74364277
0.74742675
0.75139617
0.75554296
0.75985645
0.76432366
0.76892702
0.77364474
0.77844633
0.78329615
0.78813689
0.79290209
0.79749387
0.80178527
0.80562045
0.80877011
0.81114266
0.81275664
0.81365322
0.81396604
0.81370281
0.81339743
0.81242766
0.81238299
0.83443789
0.83408844
0.68918402
0.68906794
0.68905192
0.6891347
0.68931486
0.68959137
0.68996357
0.69043125
0.69099441
0.69165341
0.69240925
0.69326295
0.69421581
0.69527014
0.69642751
0.69769156
0.69906181
0.70053559
0.70211145
0.70378829
0.70556427
0.70743881
0.70941111
0.71148024
0.71364529
0.71590491
0.71825815
0.72070183
0.72323674
0.72586815
0.72860213
0.73144529
0.73440476
0.73748814
0.74070358
0.74405979
0.74756633
0.75123276
0.75507076
0.75908969
0.76330664
0.76772269
0.77232835
0.77711135
0.78205702
0.78714562
0.79235309
0.79764562
0.80298427
0.80830608
0.81353862
0.81857514
0.82327717
0.82747559
0.83092105
0.83351337
0.83527644
0.83625299
0.83659372
0.83630075
0.83596842
0.83492438
0.83480079
0.85887716
0.85847999
0.69707908
0.69693398
0.69690826
0.69700079
0.69720995
0.69753437
0.69797294
0.698525
0.69919002
0.69996783
0.70085896
0.70186395
0.70298359
0.70421987
0.70557381
0.70704893
0.70864389
0.71035478
0.71217925
0.7141154
0.71616053
0.71831346
0.72057283
0.72293714
0.72540502
0.72797459
0.7306445
0.73341093
0.73627456
0.73924118
0.74231747
0.74551063
0.74882847
0.75227924
0.75587176
0.75961545
0.76352069
0.76759766
0.77185907
0.77631475
0.78098325
0.78586526
0.7909498
0.79622292
0.80166817
0.80726354
0.81298254
0.81878788
0.82463716
0.83046144
0.83618205
0.84168292
0.84681354
0.85139081
0.85514468
0.85796539
0.85988334
0.86094171
0.86131068
0.8609845
0.86062267
0.8594949
0.85930975
0.88548658
0.88503636
0.70626232
0.70636534
0.70660472
0.70697874
0.70748585
0.70812493
0.70889492
0.70979516
0.71082571
0.71198662
0.71327816
0.71470204
0.71625874
0.71795168
0.71977864
0.72173449
0.72381593
0.72602027
0.72834393
0.73078514
0.73334196
0.73601232
0.73879437
0.74168569
0.74468455
0.74778642
0.75099189
0.75430731
0.75773995
0.76129767
0.76498894
0.76882268
0.77280847
0.77695642
0.78127775
0.78578332
0.79048691
0.79539879
0.80053907
0.805908
0.81149306
0.81727848
0.82324598
0.82937109
0.83562483
0.84196616
0.8483491
0.85469834
0.86092877
0.8669144
0.87249229
0.87746446
0.8815397
0.88459746
0.88667609
0.88781784
0.88821522
0.88785187
0.88745771
0.88623694
0.88599647
0.91436369
0.91385689
0.71715743
0.71727166
0.71754264
0.71796823
0.71854645
0.71927571
0.72015443
0.72118143
0.72235631
0.72367863
0.72514816
0.72676635
0.7285331
0.73045179
0.73251929
0.73472922
0.73707733
0.73956014
0.74217315
0.74491398
0.74778012
0.75076892
0.75387802
0.75710444
0.76044607
0.76389765
0.76745966
0.771139
0.77494361
0.77888199
0.78296331
0.78719721
0.791594
0.79616455
0.80092095
0.80587473
0.8110408
0.81642988
0.82206368
0.82794199
0.83405066
0.84037198
0.84688576
0.85356486
0.86037776
0.86727933
0.87421996
0.88111752
0.88788027
0.89437165
0.90041596
0.90579931
0.91020904
0.91351236
0.91575739
0.91698364
0.91740936
0.9170043
0.91657474
0.91525239
0.91495518
0.94560792
0.94504184
0.72964478
0.72977108
0.73007525
0.73055474
0.73120707
0.73203021
0.73302203
0.73418082
0.73550574
0.73699587
0.73865044
0.74047066
0.74245587
0.7446094
0.74692722
0.74940165
0.75202748
0.75480042
0.757715
0.76076826
0.76395707
0.76727817
0.77072871
0.77430511
0.77800486
0.78182192
0.78575667
0.7898166
0.7940103
0.79834694
0.80283644
0.80748915
0.81231618
0.81732912
0.82254101
0.82796404
0.83361431
0.83950296
0.8456534
0.85206487
0.85872151
0.86560353
0.87268875
0.87994714
0.88734454
0.89483146
0.90235454
0.90982434
0.91714237
0.92416078
0.93069085
0.93650165
0.94125889
0.94481594
0.94723289
0.9485442
0.94899786
0.94854584
0.94807757
0.94664524
0.94628706
0.97932141
0.97869299
0.74392297
0.74426223
0.74479828
0.7455282
0.74644945
0.74755937
0.74885572
0.7503372
0.75200241
0.75385004
0.75588107
0.75809425
0.76049288
0.76307203
0.76582268
0.7687386
0.77181468
0.77504447
0.77842437
0.78195064
0.78561938
0.78942722
0.79336994
0.79744462
0.80164441
0.80596957
0.81042818
0.81502951
0.81978344
0.82470065
0.82979219
0.83507004
0.8405465
0.84623562
0.85215022
0.85830766
0.86471945
0.87141079
0.87838029
0.88561031
0.89307878
0.90076144
0.90862517
0.91663309
0.92473095
0.93286165
0.94092786
0.94882428
0.95639092
0.96342603
0.96968015
0.97479762
0.97861614
0.98121012
0.98260629
0.98308712
0.98258212
0.98207148
0.98052045
0.98009602
1.0156073
1.0149128
0.759795
0.76017147
0.76076714
0.76157855
0.7626027
0.76383637
0.76527678
0.76692215
0.7687706
0.77082026
0.77307191
0.77552367
0.77817884
0.78103155
0.78407139
0.78729109
0.79068466
0.79424466
0.79796682
0.80184674
0.80587985
0.81006226
0.81438904
0.81885687
0.82345804
0.82819262
0.83306934
0.83809817
0.8432897
0.84865539
0.85420705
0.8599575
0.86591978
0.87210899
0.87853854
0.88522714
0.89218662
0.89944402
0.90699726
0.91482679
0.92290812
0.93121479
0.93971031
0.94835506
0.95708962
0.96585313
0.97453977
0.98303748
0.99117316
0.99873211
1.0054448
1.0109347
1.0150215
1.0177971
1.0192771
1.0197839
1.0192191
1.018662
1.016983
1.0164864
1.0545677
1.0538031
0.77746297
0.77787911
0.77853781
0.77943512
0.78056752
0.78193123
0.78352292
0.78534031
0.78738105
0.78964267
0.79212577
0.7948278
0.79775209
0.80089179
0.80423502
0.80777344
0.81150018
0.8154067
0.81948805
0.82373915
0.82815471
0.83273028
0.8374602
0.84234069
0.84736312
0.8525274
0.85784287
0.86332025
0.86897083
0.87480689
0.88084099
0.88708683
0.89355818
0.90027123
0.90723995
0.91448448
0.92201687
0.92986611
0.9380293
0.94648491
0.95520578
0.96416318
0.97331699
0.98262478
0.99202151
1.0014427
1.0107732
1.0198945
1.0286192
1.03672
1.0439053
1.0497791
1.0541399
1.057101
1.0586628
1.0591939
1.0585616
1.0579536
1.0561366
1.0555615
1.0963026
1.0954632
0.79701106
0.79746958
0.79819512
0.79918319
0.80042975
0.80193044
0.80368135
0.8056797
0.80792265
0.81040709
0.81313346
0.81609851
0.8193056
0.82274686
0.82640888
0.83028219
0.83435898
0.83862957
0.84308829
0.84772934
0.85254667
0.85753521
0.86268853
0.86800235
0.87346708
0.8790824
0.88485832
0.89080627
0.8969383
0.90326751
0.9098072
0.91657199
0.92357636
0.93083763
0.93837029
0.94619595
0.95432685
0.96279397
0.97159346
0.98070173
0.9900887
0.99972333
1.0095615
1.019558
1.0296417
1.0397445
1.0497415
1.0595075
1.0688399
1.0774994
1.0851702
1.0914383
1.0960775
1.0992271
1.1008674
1.1014205
1.100712
1.1000482
1.0980825
1.0974219
1.1409078
1.1399889
0.81853172
0.81903564
0.81983219
0.82091634
0.82228352
0.82392874
0.82584752
0.82803653
0.83049243
0.83321146
0.83619389
0.8394357
0.84294031
0.84669879
0.85069611
0.8549216
0.85936647
0.86401984
0.86887525
0.87392614
0.87916563
0.88458804
0.89018604
0.89595488
0.90188387
0.90797248
0.91423135
0.9206727
0.92730927
0.93415505
0.94122403
0.94853181
0.95609355
0.96392773
0.97204928
0.9804814
0.98923635
0.99834727
1.0078091
1.0175962
1.0276753
1.0380129
1.0485607
1.0592706
1.0700648
1.080872
1.0915564
1.1019868
1.111944
1.1211773
1.129345
1.1360163
1.1409367
1.1442768
1.1459911
1.1465633
1.1457689
1.1450438
1.142918
1.1421645
1.1884737
1.1874708
0.84212569
0.84267828
0.84355037
0.84473636
0.84623114
0.84802905
0.850125
0.8525151
0.8551955
0.85816171
0.86141385
0.86494711
0.86876494
0.87285728
0.87720742
0.88180341
0.8866354
0.89169125
0.89696365
0.90244525
0.90812824
0.91400628
0.92007111
0.9263174
0.93273335
0.93931815
0.94608306
0.95304111
0.96020574
0.96759184
0.97521407
0.98308903
0.9912325
0.99966422
1.0083994
1.017463
1.0268671
1.0366472
1.0467967
1.057288