/*--------------------------------*- C++ -*----------------------------------*\
| =========                 |                                                 |
| \\      /  F ield         | OpenFOAM: The Open Source CFD Toolbox           |
|  \\    /   O peration     | Version:  2.4.0                                 |
|   \\  /    A nd           | Web:      www.OpenFOAM.org                      |
|    \\/     M anipulation  |                                                 |
\*---------------------------------------------------------------------------*/
FoamFile
{
    version     2.0;
    format      ascii;
    class       volScalarField;
    location    "300";
    object      p;
}
// * * * * * * * * * * * * * * * * * * * * * * * * * * * * * * * * * * * * * //

dimensions      [0 2 -2 0 0 0 0];

internalField   nonuniform List<scalar> 
32000
(
-0.024227703
-0.011873986
-0.015264787
-0.014447665
-0.012621882
-0.0070313904
-0.00096657847
0.0027655742
0.0045865291
0.0055753577
0.0062985432
0.0069442092
0.0075470699
0.008075303
0.008578552
0.0089836826
0.0093149441
0.0096040475
0.0098663161
0.010110269
0.010342706
0.010557786
0.010753824
0.010923203
0.011047568
0.01111475
0.011116044
0.011052076
0.010918153
0.010724847
0.010488585
0.010233473
0.0099868228
0.0097757189
0.0096214329
0.0095356192
0.0095176742
0.0095586669
0.0096461629
0.009763975
0.0098976592
0.01003585
0.010169516
0.010291067
0.01039454
0.010473143
0.010518683
0.010526749
0.010485189
0.010392729
0.010242296
0.010031889
0.0097577881
0.0094199126
0.0090190982
0.0085589671
0.0080444973
0.0074824056
0.0068803484
0.006246844
0.0055911869
0.0049235095
0.0042544459
0.0035947189
0.0029547317
0.0023442762
0.0017722778
0.0012465592
0.00077427501
0.0003628709
2.0985563e-05
-0.00024081765
-0.00040975882
-0.00047094652
-0.00040775483
-0.00020233008
0.00016392898
0.0007098348
0.0014538544
0.0024135103
0.0036043642
0.005038686
0.0067245192
0.0086644866
0.010855697
0.013287225
0.015937315
0.018767195
0.021722289
0.024688725
0.027629397
0.030460491
0.032979502
0.034985221
0.03622211
0.036383634
0.035126177
0.032149957
0.027360036
0.021097947
0.014278357
0.0081706547
0.0037364
0.0011946892
0.00015689912
4.5454404e-05
0.00045081291
0.0012315212
0.002414684
0.004007854
0.0058884144
0.0078424609
0.009664609
0.011222876
0.012460988
0.013360627
0.013916643
0.014134038
0.014024864
0.013619614
0.012949075
0.012030719
0.010858929
0.0093929864
0.0075725523
0.0053384914
0.0026521639
-0.00048925014
-0.0040477833
-0.0079475853
-0.012091541
-0.016376483
-0.020709514
-0.025018932
-0.029246934
-0.033347228
-0.037278958
-0.041002945
-0.044480902
-0.047676018
-0.050554528
-0.053086243
-0.055243094
-0.056995726
-0.058308364
-0.059132212
-0.059400669
-0.05901908
-0.057864336
-0.055750682
-0.052478464
-0.04762511
-0.041160029
-0.03265394
-0.028868776
-0.025980563
-0.023969161
-0.022481995
-0.021396298
-0.02053124
-0.019881672
-0.019314901
-0.01878962
-0.018232762
-0.017641662
-0.016912918
-0.015736522
-0.013962722
-0.011487703
-0.0082201867
-0.0041072743
0.00088594589
0.006767946
0.013570158
0.021109115
0.029115154
0.037260585
0.045481051
0.053631085
0.061588567
0.06924455
0.076503519
0.083242448
0.089349784
0.094745506
0.099069396
0.10208877
0.10305706
0.10063223
0.09402271
0.082030511
0.063323105
0.037582959
0.0061431965
-0.021798622
-0.039941201
-0.047664057
-0.048567206
-0.043203953
-0.040995704
-0.024228814
-0.011873836
-0.015263197
-0.014442679
-0.01262039
-0.0070414364
-0.00098358897
0.0027508827
0.0045767026
0.0055686218
0.006292896
0.0069386943
0.0075418202
0.008070362
0.0085739158
0.0089797707
0.0093116253
0.0096011037
0.0098636259
0.010107746
0.010340312
0.010555556
0.010751768
0.010921413
0.011046182
0.011113883
0.011115771
0.011052444
0.010919174
0.010726426
0.010490561
0.010235621
0.0099889014
0.0097775071
0.0096227764
0.0095364657
0.0095180758
0.0095587215
0.0096459858
0.0097636842
0.0098973514
0.010035591
0.010169343
0.010290991
0.01039454
0.010473171
0.010518674
0.010526647
0.010485005
0.010392459
0.010241938
0.010031453
0.0097572867
0.0094193636
0.0090185197
0.0085583784
0.0080439164
0.0074818492
0.0068798325
0.0062463839
0.0055907977
0.0049232038
0.0042542347
0.0035946111
0.0029547326
0.0023443862
0.0017724934
0.0012468736
0.00077467933
0.00036335494
2.1539098e-05
-0.00024020451
-0.00040909529
-0.00047024088
-0.00040701412
-0.00020155995
0.00016472399
0.0007106503
0.0014546847
0.0024143461
0.0036051907
0.0050394813
0.0067252535
0.0086651194
0.010856173
0.013287484
0.01593728
0.018766776
0.021721406
0.024687311
0.02762733
0.030457649
0.032975805
0.034980586
0.036216524
0.036377244
0.035119409
0.032143643
0.027355402
0.021096258
0.014280364
0.0081760708
0.003743789
0.0012022055
0.00016321376
5.0130347e-05
0.0004540381
0.0012335871
0.002415707
0.0040078729
0.0058875866
0.0078410687
0.0096629323
0.011221112
0.012459246
0.013358978
0.013915149
0.014132764
0.014023867
0.013618915
0.012948669
0.012030591
0.010859086
0.0093934789
0.0075734728
0.0053399405
0.0026542233
-0.00048654547
-0.0040444703
-0.0079437694
-0.01208737
-0.016372105
-0.02070505
-0.025014464
-0.029242502
-0.033342848
-0.037274628
-0.040998655
-0.044476642
-0.047671783
-0.050550316
-0.053082058
-0.055238953
-0.056991657
-0.058304418
-0.059128466
-0.059397242
-0.05901613
-0.057862117
-0.055749506
-0.052479059
-0.047628177
-0.041169207
-0.032666111
-0.028874454
-0.025981174
-0.023967858
-0.022479479
-0.021393196
-0.020527868
-0.01987812
-0.019310928
-0.01878504
-0.01822736
-0.017634988
-0.016903037
-0.015721483
-0.013941503
-0.011459356
-0.0081840753
-0.0040630809
0.00093824153
0.0068282914
0.013637397
0.021180805
0.029188547
0.037334261
0.04555424
0.053702591
0.061657485
0.069310035
0.076564605
0.083298095
0.089399081
0.094785933
0.099097673
0.10210037
0.10304353
0.10058693
0.09394105
0.081908693
0.063167261
0.037414169
0.0060115098
-0.021862111
-0.039953751
-0.047655396
-0.048555778
-0.043194994
-0.040994383
-0.024229695
-0.011873434
-0.015261341
-0.014436742
-0.012618344
-0.0070520419
-0.0010019454
0.0027347558
0.0045657585
0.0055610834
0.0062865831
0.0069325359
0.0075359543
0.0080648387
0.0085687314
0.0089753885
0.0093079068
0.0095978066
0.0098606132
0.010104919
0.01033763
0.010553053
0.010749459
0.010919395
0.01104461
0.011112886
0.011115435
0.011052823
0.010920282
0.010728158
0.010492737
0.010237995
0.0099912038
0.0097794928
0.0096242739
0.0095374155
0.0095185323
0.0095587937
0.0096458018
0.0097633744
0.0098970228
0.010035316
0.010169163
0.01029092
0.010394552
0.010473214
0.010518672
0.010526541
0.010484806
0.010392164
0.010241544
0.010030971
0.0097567307
0.0094187542
0.0090178778
0.0085577258
0.0080432737
0.0074812357
0.006879266
0.0062458809
0.0055903738
0.0049228738
0.0042540119
0.0035945058
0.0029547511
0.0023445288
0.0017727559
0.0012472481
0.00077515496
0.00036391929
2.217942e-05
-0.00023950068
-0.0004083396
-0.00046944385
-0.00040618459
-0.00020070501
0.00016559876
0.00071153972
0.0014555822
0.0024152414
0.0036060674
0.0050403147
0.0067260092
0.0086657529
0.010856627
0.013287687
0.015937147
0.018766207
0.021720317
0.024685615
0.027624893
0.030454355
0.032971564
0.034975312
0.036210218
0.036370084
0.035111879
0.032136662
0.027350293
0.021094364
0.01428249
0.0081819607
0.0037519445
0.0012106209
0.00017037947
5.5488116e-05
0.00045773587
0.0012359224
0.0024168201
0.0040078408
0.0058866171
0.0078394894
0.0096610522
0.011219142
0.012457303
0.01335714
0.013913487
0.014131351
0.014022766
0.01361815
0.012948237
0.012030485
0.010859317
0.0093941105
0.0075746062
0.0053416896
0.0026566774
-0.00048335892
-0.0040406037
-0.0079393511
-0.012082571
-0.016367096
-0.020699966
-0.025009392
-0.029237487
-0.033337904
-0.03726975
-0.040993829
-0.044471855
-0.047667023
-0.050545578
-0.053077346
-0.055234283
-0.056987064
-0.058299961
-0.059124238
-0.059393383
-0.059012831
-0.05785968
-0.055748304
-0.052479951
-0.047631988
-0.041180023
-0.032680161
-0.028881497
-0.025982463
-0.023966904
-0.022477109
-0.021390132
-0.020524469
-0.019874504
-0.01930682
-0.018780233
-0.018221617
-0.017627806
-0.016892263
-0.015704939
-0.013918054
-0.011427946
-0.0081439956
-0.0040139764
0.00099640014
0.0068954339
0.013712189
0.021260503
0.029270107
0.037416113
0.045635541
0.053782007
0.061734011
0.069382734
0.076632406
0.083359836
0.089453743
0.094830692
0.099128827
0.10211285
0.10302793
0.10053591
0.09384962
0.081772822
0.062994202
0.037228164
0.005868659
-0.021928273
-0.039964139
-0.047643504
-0.048541908
-0.043184298
-0.040992715
-0.024230052
-0.011872887
-0.015259073
-0.01443058
-0.012616231
-0.0070626608
-0.0010201447
0.0027186792
0.0045547143
0.0055534195
0.0062801484
0.0069262562
0.0075299667
0.0080591989
0.0085634396
0.0089709099
0.0093041035
0.009594434
0.0098575305
0.010102027
0.010334884
0.01055049
0.010747094
0.010917328
0.011043
0.011111862
0.011115087
0.011053207
0.01092141
0.010729924
0.010494953
0.01024041
0.0099935426
0.0097815037
0.0096257841
0.0095383658
0.0095189801
0.0095588524
0.0096456038
0.0097630528
0.0098966862
0.010035038
0.010168986
0.010290856
0.010394577
0.010473272
0.010518687
0.010526451
0.010484624
0.010391885
0.010241164
0.010030502
0.0097561871
0.0094181556
0.0090172446
0.0085570799
0.0080426355
0.0074806248
0.0068787001
0.0062453767
0.005589947
0.0049225394
0.0042537834
0.003594394
0.0029547624
0.002344664
0.0017730111
0.0012476153
0.00077562272
0.00036447428
2.2807649e-05
-0.00023881307
-0.00040760559
-0.00046867509
-0.00040539079
-0.00019989383
0.00016642145
0.00071236869
0.0014564111
0.0024160604
0.003606861
0.0050410593
0.0067266717
0.0086662895
0.010856982
0.013287791
0.015936918
0.018765555
0.021719166
0.024683858
0.027622411
0.030451062
0.03296738
0.034970159
0.03620412
0.036363233
0.035104751
0.032130111
0.0273455
0.0210925
0.014284265
0.0081872358
0.0037594697
0.0012185924
0.00017732737
6.0766834e-05
0.00046138009
0.001238164
0.002417805
0.0040076953
0.0058855903
0.0078379165
0.0096592235
0.011217245
0.012455442
0.013355388
0.013911914
0.014130026
0.014021752
0.01361747
0.012947893
0.012030479
0.010859676
0.0093949055
0.0075759418
0.0053436742
0.002659387
-0.00047991296
-0.0040364905
-0.0079347123
-0.012077585
-0.016361933
-0.020694758
-0.025004223
-0.029232397
-0.033332905
-0.037264836
-0.040988983
-0.044467062
-0.047662272
-0.050540861
-0.053072668
-0.055229659
-0.056982532
-0.058295589
-0.059120129
-0.059389692
-0.059009771
-0.057857578
-0.05574758
-0.052481505
-0.047636774
-0.041191957
-0.032695405
-0.028889686
-0.025984849
-0.023966843
-0.022475539
-0.021387799
-0.020521754
-0.019871544
-0.019303342
-0.018776028
-0.018216435
-0.017621137
-0.016881912
-0.015688657
-0.01389466
-0.011396353
-0.0081034668
-0.0039641446
0.0010555621
0.0069638235
0.013788464
0.021341815
0.029353319
0.037499636
0.045718506
0.053863056
0.061812122
0.069456948
0.076701627
0.083422889
0.089509576
0.094876407
0.099160605
0.10212552
0.10301198
0.10048386
0.093756518
0.081634939
0.062819646
0.037042785
0.0057304407
-0.021987128
-0.039968027
-0.047627659
-0.048526084
-0.043173039
-0.040990518
-0.024229884
-0.011872204
-0.015256078
-0.014423907
-0.012613909
-0.0070736833
-0.0010387413
0.0027022353
0.0045433003
0.005545434
0.0062734153
0.0069196768
0.0075236845
0.0080532781
0.008557885
0.0089662035
0.0093001029
0.0095908858
0.0098542866
0.010098983
0.010331996
0.010547795
0.010744609
0.010915158
0.011041313
0.011110793
0.011114729
0.011053618
0.010922602
0.010731783
0.010497283
0.010242943
0.0099959878
0.0097835974
0.0096273458
0.0095393362
0.0095194232
0.0095588905
0.0096453778
0.0097627033
0.0098963268
0.010034745
0.010168804
0.010290797
0.010394614
0.010473348
0.010518723
0.01052638
0.010484459
0.010391619
0.010240795
0.010030041
0.009755647
0.0094175569
0.009016608
0.0085564273
0.0080419879
0.0074800019
0.0068781203
0.0062448571
0.0055895039
0.0049221881
0.004253538
0.0035942659
0.0029547586
0.0023447857
0.0017732547
0.0012479729
0.00077608221
0.00036502096
2.3425933e-05
-0.00023813879
-0.00040688994
-0.00046793112
-0.00040462928
-0.00019912315
0.00016719504
0.00071313987
0.0014571737
0.0024168051
0.003607573
0.0050417157
0.0067272402
0.0086667265
0.010857232
0.013287787
0.015936581
0.018764802
0.021717927
0.024682005
0.027619841
0.030447718
0.032963185
0.034965049
0.03619814
0.036356593
0.035097922
0.032123885
0.027340918
0.021090549
0.014285559
0.0081917645
0.0037662618
0.0012260698
0.00018405289
6.5982109e-05
0.00046498332
0.0012403092
0.0024186424
0.0040074071
0.0058844759
0.0078363228
0.0096574228
0.011215401
0.012453645
0.013353708
0.01391042
0.014128785
0.014020823
0.013616878
0.012947647
0.012030594
0.010860194
0.009395911
0.0075775437
0.0053459758
0.0026624498
-0.00047609651
-0.00403201
-0.0079297268
-0.012072285
-0.016356491
-0.020689305
-0.024998839
-0.02922712
-0.033327746
-0.037259784
-0.040984021
-0.044462175
-0.047657447
-0.050536089
-0.053067951
-0.055225018
-0.05697801
-0.058291261
-0.059116116
-0.059386169
-0.059006979
-0.057855882
-0.055747469
-0.052483942
-0.047642947
-0.041205726
-0.032713205
-0.028899974
-0.025989069
-0.023968263
-0.022475268
-0.021386636
-0.020520128
-0.019869619
-0.019300844
-0.018772738
-0.01821209
-0.017615204
-0.016872069
-0.015672513
-0.013870947
-0.011363907
-0.008061501
-0.0039122574
0.0011174041
0.0070355026
0.013868503
0.021427168
0.029440665
0.037587328
0.045805624
0.053948177
0.061894173
0.069534925
0.076774379
0.083489184
0.089568315
0.094924512
0.099194029
0.10213888
0.10299533
0.10042936
0.093659186
0.081491365
0.062639321
0.036854408
0.0055962116
-0.022036129
-0.039961852
-0.047605111
-0.048506691
-0.043160701
-0.040987509
-0.024229181
-0.011871334
-0.015252057
-0.014416366
-0.012611083
-0.0070851497
-0.0010579016
0.0026853396
0.0045314314
0.0055370554
0.0062663149
0.0069127252
0.0075170356
0.0080470056
0.0085519996
0.0089612106
0.0092958544
0.0095871172
0.0098508411
0.01009575
0.01032893
0.010544933
0.010741973
0.010912861
0.01103953
0.011109666
0.011114357
0.011054064
0.010923875
0.010733761
0.010499754
0.010245623
0.0099985659
0.0097857949
0.0096289727
0.0095403329
0.0095198616
0.0095589037
0.009645118
0.0097623197
0.0098959395
0.010034434
0.010168615
0.010290743
0.010394667
0.010473446
0.010518782
0.010526331
0.010484313
0.010391367
0.010240437
0.010029585
0.0097551084
0.0094169554
0.0090159645
0.0085557641
0.0080413264
0.0074793626
0.0068775221
0.0062443177
0.0055890402
0.004921816
0.0042532723
0.0035941188
0.0029547375
0.0023448924
0.0017734863
0.0012483213
0.00077653417
0.00036556037
2.4035275e-05
-0.00023747719
-0.00040619269
-0.00046721293
-0.00040390223
-0.0001983965
0.00016791458
0.00071384681
0.0014578619
0.0024174658
0.0036081921
0.0050422712
0.0067277001
0.0086670469
0.010857358
0.013287653
0.015936109
0.018763917
0.021716566
0.024680011
0.027617138
0.03044427
0.032958914
0.034959905
0.036192191
0.036350068
0.035091287
0.032117872
0.027336411
0.02108834
0.014286153
0.0081952998
0.0037720966
0.0012329015
0.00019048177
7.1107785e-05
0.00046853491
0.0012423443
0.0024193116
0.0040069544
0.0058832562
0.0078346963
0.0096556419
0.011213603
0.012451906
0.013352095
0.013909001
0.014127627
0.014019981
0.013616379
0.012947509
0.012030846
0.010860895
0.0093971603
0.0075794564
0.0053486487
0.0026659288
-0.00047184105
-0.0040270916
-0.0079243255
-0.012066604
-0.01635071
-0.020683551
-0.024993189
-0.029221615
-0.033322389
-0.037254556
-0.040978909
-0.044457165
-0.047652522
-0.050531241
-0.053063181
-0.055220348
-0.05697349
-0.058286982
-0.059112214
-0.059382844
-0.059004508
-0.057854673
-0.055748099
-0.052487459
-0.047650888
-0.04122203
-0.032734963
-0.028913496
-0.025996069
-0.023971981
-0.022477025
-0.021387309
-0.020520217
-0.019869321
-0.01929989
-0.018770894
-0.018209086
-0.017610465
-0.016863101
-0.015656751
-0.013847016
-0.011330553
-0.0080178652
-0.0038579028
0.0011825189
0.0071112429
0.01395319
0.021517507
0.029533097
0.037680154
0.045897852
0.054038307
0.061981071
0.069617532
0.076851476
0.083559474
0.089630635
0.094975549
0.099229456
0.10215305
0.10297774
0.10037173
0.093556512
0.081340685
0.062451951
0.036662825
0.0054681895
-0.02207102
-0.039941174
-0.047572629
-0.04848189
-0.043146628
-0.040983408
-0.024227932
-0.011870205
-0.015246649
-0.014407604
-0.012607406
-0.0070969787
-0.00107765
0.0026680614
0.0045191369
0.0055282889
0.0062588409
0.0069053883
0.0075100036
0.0080403628
0.0085457644
0.0089559133
0.0092913422
0.0095831145
0.0098471817
0.010092317
0.010325676
0.010541898
0.01073918
0.010910429
0.011037647
0.011108481
0.011113973
0.011054546
0.010925233
0.010735863
0.010502373
0.010248455
0.010001281
0.009788097
0.0096306624
0.0095413507
0.0095202886
0.0095588853
0.0096448182
0.0097618976
0.0098955214
0.010034105
0.010168421
0.010290696
0.010394738
0.010473569
0.01051887
0.010526306
0.010484189
0.010391134
0.010240093
0.010029139
0.0097545753
0.0094163547
0.0090153175
0.0085550932
0.0080406535
0.0074787087
0.0068769068
0.0062437593
0.0055885558
0.0049214222
0.0042529847
0.0035939505
0.0029546957
0.0023449802
0.0017737016
0.0012486556
0.00077697309
0.00036608621
2.4628378e-05
-0.00023683683
-0.00040552385
-0.00046653221
-0.0004032231
-0.00019772917
0.00016856287
0.00071447045
0.001458455
0.0024180199
0.0036086942
0.0050427002
0.0067280242
0.0086672224
0.010857331
0.013287358
0.015935471
0.018762869
0.021715053
0.024677841
0.027614274
0.030440692
0.032954529
0.034954687
0.036186231
0.036343612
0.035084791
0.03211199
0.027331847
0.02108565
0.01428571
0.008197416
0.0037765469
0.0012387557
0.00019640926
7.6034671e-05
0.00047197374
0.0012442257
0.0024197784
0.0040063165
0.0058819269
0.0078330444
0.0096538947
0.011211867
0.012450243
0.013350565
0.013907674
0.014126565
0.014019239
0.013615986
0.012947492
0.012031251
0.010861801
0.0093986851
0.0075817185
0.0053517359
0.0026698677
-0.00046710573
-0.0040217011
-0.007918483
-0.012060528
-0.016344583
-0.020677497
-0.024987281
-0.029215896
-0.033316847
-0.037249167
-0.040973668
-0.044452056
-0.047647527
-0.050526349
-0.053058395
-0.055215694
-0.056969028
-0.058282814
-0.059108498
-0.059379807
-0.059002469
-0.057854092
-0.055749656
-0.052492308
-0.047661056
-0.041241624
-0.032762162
-0.028931535
-0.026006991
-0.023979027
-0.022481759
-0.021390701
-0.020522864
-0.019871455
-0.019301253
-0.018771243
-0.018208139
-0.017607591
-0.016855606
-0.015641885
-0.013823284
-0.0112966
-0.0079727625
-0.0038011683
0.0012509269
0.007191153
0.014042699
0.021613021
0.029630794
0.037778303
0.045995381
0.054133634
0.062073003
0.069704952
0.076933093
0.083633926
0.089696694
0.095029633
0.099266935
0.102168
0.10295909
0.10031074
0.093448231
0.081182771
0.062257953
0.036469701
0.0053501155
-0.022086643
-0.039901028
-0.047526633
-0.04844961
-0.043130105
-0.040977848
-0.02422613
-0.011868733
-0.015239407
-0.014397207
-0.012602444
-0.0071090615
-0.0010980652
0.0026504936
0.004506462
0.0055191487
0.0062509918
0.0068976565
0.0075025741
0.0080333328
0.0085391616
0.0089502951
0.0092865511
0.0095788642
0.0098432965
0.010088674
0.010322225
0.010538681
0.010736223
0.010907859
0.011035663
0.011107237
0.011113579
0.011055069
0.010926684
0.010738097
0.010505148
0.010251446
0.010004136
0.0097905032
0.0096324105
0.0095423821
0.0095206948
0.009558826
0.0096444705
0.0097614309
0.0098950685
0.010033754
0.01016822
0.010290657
0.01039483
0.010473722
0.010518989
0.010526313
0.010484094
0.010390926
0.010239769
0.010028709
0.009754053
0.00941576
0.0090146715
0.0085544186
0.0080399725
0.0074780427
0.0068762762
0.0062431826
0.0055880507
0.0049210058
0.0042526732
0.0035937576
0.0029546288
0.0023450435
0.0017738944
0.0012489685
0.00077739083
0.00036658926
2.5194752e-05
-0.00023622967
-0.00040489708
-0.00046590443
-0.00040260931
-0.00019714058
0.00016911851
0.00071498737
0.0014589274
0.0024184402
0.0036090502
0.0050429722
0.0067281805
0.0086672194
0.010857115
0.013286868
0.015934631
0.018761623
0.021713351
0.024675455
0.027611213
0.030436948
0.032949984
0.034949346
0.036180203
0.036337157
0.035078349
0.032106124
0.027327045
0.021082184
0.014283789
0.0081975551
0.0037790446
0.0012431811
0.00020155024
8.0609348e-05
0.00047521734
0.0012459014
0.0024200078
0.004005477
0.0058804902
0.0078313817
0.0096522011
0.011210215
0.012448675
0.013349139
0.013906457
0.014125618
0.014018613
0.013615712
0.012947611
0.012031828
0.010862939
0.0094005192
0.0075843711
0.005355281
0.0026743095
-0.00046185309
-0.0040158102
-0.0079121824
-0.012054051
-0.016338115
-0.020671153
-0.024981145
-0.029209993
-0.033311142
-0.037243648
-0.040968331
-0.044446885
-0.047642504
-0.050521462
-0.053053649
-0.055211121
-0.056964697
-0.058278845
-0.059105072
-0.059377184
-0.059001013
-0.057854321
-0.05575238
-0.052498808
-0.047674015
-0.041265406
-0.032796517
-0.028955598
-0.02602321
-0.023990661
-0.022490641
-0.021397918
-0.020529127
-0.019877034
-0.019305912
-0.018774725
-0.018210151
-0.017607427
-0.016850331
-0.015628555
-0.013800279
-0.011262451
-0.0079264625
-0.0037421925
0.0013226146
0.0072753262
0.014137184
0.021713874
0.029733916
0.037881938
0.046098376
0.054234327
0.062170135
0.06979735
0.077019392
0.083712694
0.089766638
0.095086865
0.099306497
0.10218372
0.10293926
0.10024614
0.093334077
0.081017524
0.062057802
0.036276765
0.0052457467
-0.022077793
-0.039836194
-0.047463143
-0.048407412
-0.043110244
-0.04097035
-0.024223791
-0.011866807
-0.01522977
-0.014384683
-0.012595649
-0.0071212268
-0.0011192318
0.0026327288
0.0044934571
0.0055096515
0.0062427662
0.0068895175
0.0074947295
0.0080258946
0.0085321693
0.0089443358
0.0092814627
0.0095743502
0.0098391712
0.010084807
0.010318566
0.01053527
0.010733092
0.010905142
0.011033571
0.011105932
0.011113174
0.011055637
0.010928232
0.010740472
0.010508088
0.010254603
0.010007136
0.009793013
0.0096342116
0.0095434176
0.0095210686
0.0095587139
0.0096440645
0.0097609114
0.0098945755
0.010033379
0.010168012
0.010290629
0.010394946
0.010473907
0.010519147
0.010526355
0.010484032
0.010390748
0.010239472
0.0100283
0.0097535475
0.0094151766
0.0090140314
0.0085537444
0.0080392868
0.0074773675
0.006875632
0.0062425885
0.0055875246
0.0049205652
0.004252335
0.0035935359
0.0029545312
0.0023450757
0.0017740569
0.0012492512
0.00077777744
0.00036705828
2.5721705e-05
-0.00023567007
-0.00040432859
-0.00046534778
-0.0004020811
-0.00019665305
0.00016955705
0.00071537104
0.0014592507
0.002418696
0.0036092279
0.0050430533
0.006728133
0.008667
0.010856672
0.01328614
0.015933546
0.018760135
0.021711415
0.024672808
0.027607907
0.030432986
0.032945212
0.034943802
0.036174014
0.036330594
0.035071832
0.032100105
0.027321761
0.021077566
0.014279846
0.0081950315
0.0037788821
0.0012456047
0.00020553796
8.4635943e-05
0.00047816655
0.0012473169
0.0024199698
0.0040044283
0.0058789574
0.0078297288
0.0096505843
0.011208668
0.012447223
0.013347835
0.013905368
0.014124802
0.014018115
0.013615571
0.01294788
0.012032596
0.010864334
0.0094026982
0.0075874575
0.0053593288
0.0026792969
-0.00045604745
-0.0040093947
-0.0079054135
-0.012047178
-0.016331321
-0.02066455
-0.024974824
-0.029203943
-0.033305306
-0.037238033
-0.040962937
-0.044441696
-0.047637502
-0.050516637
-0.053049009
-0.055206704
-0.056960586
-0.058275181
-0.059102064
-0.059375127
-0.059000324
-0.057855585
-0.055756563
-0.052507354
-0.047690451
-0.041294443
-0.032840001
-0.028987451
-0.026046365
-0.024008407
-0.022505107
-0.02141032
-0.020540316
-0.019887315
-0.019315076
-0.018782501
-0.018216234
-0.017611001
-0.01684818
-0.015617529
-0.013778619
-0.011228568
-0.0078792684
-0.0036811187
0.0013975868
0.0073638951
0.014236841
0.021820283
0.029842665
0.037991284
0.046207063
0.054340604
0.062272686
0.069894939
0.077110578
0.083795977
0.08984065
0.095147362
0.099348177
0.10220014
0.10291807
0.10017762
0.093213679
0.080844708
0.061851814
0.036085551
0.0051585358
-0.022039483
-0.039741361
-0.047377853
-0.04835248
-0.043085931
-0.040960286
-0.024220938
-0.011864292
-0.015217054
-0.014369436
-0.012586346
-0.007133225
-0.0011412016
0.002614845
0.0044801849
0.0054998205
0.0062341655
0.0068809598
0.0074864513
0.0080180258
0.0085247641
0.0089380135
0.0092760574
0.009569555
0.00983479
0.010080703
0.010314684
0.010531654
0.010729776
0.01090227
0.011031366
0.011104564
0.011112759
0.011056253
0.010929885
0.010742994
0.0105112
0.010257932
0.010010282
0.0097956228
0.0096360586
0.0095444454
0.0095213954
0.0095585344
0.0096435871
0.0097603292
0.0098940354
0.010032976
0.010167797
0.010290612
0.010395089
0.010474132
0.010519348
0.010526441
0.010484012
0.010390607
0.010239208
0.01002792
0.0097530651
0.0094146106
0.0090134026
0.0085530755
0.0080386005
0.007476686
0.0068749764
0.0062419779
0.0055869772
0.0049200989
0.0042519674
0.0035932801
0.0029543965
0.0023450688
0.0017741798
0.0012494929
0.00077812065
0.00036747949
2.6193709e-05
-0.00023517546
-0.00040383785
-0.0004648839
-0.0004016623
-0.00019629265
0.00016985022
0.00071559096
0.001459392
0.0024187524
0.00360919
0.0050429042
0.0067278401
0.0086665208
0.010855957
0.013285127
0.015932165
0.01875835
0.021709187
0.024669845
0.027604293
0.030428733
0.032940122
0.034937949
0.036167539
0.036323776
0.035065062
0.032093711
0.027315693
0.021071347
0.014273237
0.008189026
0.0037751981
0.0012453116
0.00020790544
8.7865354e-05
0.00048070245
0.0012484171
0.002419644
0.0040031765
0.0058773529
0.0078281157
0.0096490732
0.011207253
0.012445909
0.013346673
0.013904425
0.014124132
0.014017759
0.013615573
0.012948313
0.012033573
0.010866013
0.0094052593
0.0075910202
0.0053639236
0.0026848702
-0.00044965871
-0.0040024395
-0.0078981787
-0.012039926
-0.016324231
-0.020657746
-0.024968382
-0.029197784
-0.033299384
-0.037232371
-0.040957537
-0.044436545
-0.047632583
-0.050511943
-0.053044554
-0.055202538
-0.056956809
-0.058271957
-0.059099634
-0.059373824
-0.059000628
-0.057858154
-0.055762557
-0.052518421
-0.047711168
-0.041329972
-0.032894848
-0.029029144
-0.026078395
-0.024034093
-0.022526896
-0.021429567
-0.020558034
-0.019903838
-0.019330231
-0.018795995
-0.018227741
-0.017619559
-0.016850235
-0.015609718
-0.013759037
-0.011195495
-0.0078315357
-0.0036181174
0.0014758375
0.0074569914
0.014341879
0.021932471
0.02995726
0.03810657
0.046321671
0.0544527
0.062380886
0.069997946
0.077206868
0.083883979
0.089918913
0.095211226
0.099391987
0.10221719
0.1028953
0.10010479
0.093086583
0.080664007
0.061640197
0.035897368
0.0050915329
-0.021967143
-0.039611351
-0.047266242
-0.048281651
-0.043055807
-0.040946856
-0.024217604
-0.011861024
-0.015200429
-0.014350763
-0.012573712
-0.0071447382
-0.0011640402
0.0025968925
0.0044667233
0.0054896885
0.0062251965
0.0068719742
0.007477722
0.008009704
0.0085169216
0.0089313057
0.0092703144
0.0095644602
0.0098301362
0.010076345
0.010310565
0.010527821
0.010726266
0.010899234
0.011029041
0.011103128
0.011112333
0.011056919
0.010931648
0.010745673
0.010514494
0.01026144
0.010013578
0.0097983272
0.0096379423
0.0095454508
0.0095216577
0.0095582696
0.0096430226
0.0097596716
0.0098934396
0.010032541
0.010167573
0.010290608
0.010395264
0.010474399
0.0105196
0.010526577
0.010484041
0.010390511
0.010238986
0.010027577
0.0097526135
0.0094140691
0.0090127918
0.0085524176
0.0080379184
0.0074760022
0.0068743122
0.0062413525
0.0055864087
0.0049196053
0.0042515668
0.0035929843
0.0029542168
0.0023450137
0.0017742516
0.0012496805
0.00077840542
0.00036783588
2.6591743e-05
-0.00023476703
-0.00040344833
-0.00046453855
-0.00040138104
-0.00019608984
0.00016996519
0.00071561192
0.0014593137
0.0024185694
0.0036088943
0.0050424795
0.0067272543
0.0086657329
0.010854917
0.013283774
0.015930429
0.018756206
0.021706597
0.024666505
0.027600293
0.030424095
0.032934598
0.03493165
0.036160614
0.03631651
0.035057817
0.032086673
0.027308489
0.021063012
0.014263229
0.0081785889
0.00376697
0.0012414288
0.00020806797
8.9984837e-05
0.00048268461
0.0012491506
0.0024190261
0.0040017485
0.0058757199
0.0078265859
0.0096477051
0.011205998
0.012444759
0.013345676
0.013903646
0.014123622
0.014017556
0.013615728
0.012948922
0.012034777
0.010868006
0.0094082406
0.0075951002
0.0053691074
0.0026910644
-0.00044266601
-0.0039949433
-0.0078904989
-0.012032336
-0.016316904
-0.020650846
-0.024961902
-0.029191569
-0.033293441
-0.037226729
-0.0409522
-0.044431503
-0.047627825
-0.050507467
-0.053040384
-0.055198739
-0.056953503
-0.058269336
-0.059097976
-0.059373506
-0.059002196
-0.057862358
-0.055770784
-0.052532578
-0.0477371
-0.0413734
-0.032963558
-0.029083027
-0.026121568
-0.024069892
-0.022558092
-0.021457661
-0.020584222
-0.01992847
-0.019353171
-0.01881692
-0.018246293
-0.01763458
-0.016857774
-0.015606191
-0.013742384
-0.011163863
-0.0077836766
-0.0035533961
0.001557336
0.0075547444
0.014452499
0.022050657
0.030077917
0.038228029
0.046442439
0.054570848
0.062494966
0.070106594
0.077308477
0.083976899
0.090001599
0.095278539
0.099437907
0.10223473
0.10287067
0.10002718
0.092952272
0.080475015
0.061423023
0.035713262
0.0050472476
-0.021856841
-0.039441331
-0.047123753
-0.04819149
-0.043018255
-0.040929057
-0.024213829
-0.011856796
-0.015178904
-0.014327822
-0.012556749
-0.0071553537
-0.0011878011
0.0025788691
0.0044531667
0.0054792985
0.0062158717
0.0068625541
0.0074685243
0.0080009058
0.0085086164
0.0089241885
0.0092642119
0.0095590462
0.0098251922
0.010071717
0.010306196
0.010523756
0.010722546
0.010896023
0.01102659
0.011101621
0.011111896
0.011057637
0.010933526
0.010748515
0.010517976
0.010265134
0.010017025
0.0098011305
0.0096398506
0.0095464158
0.0095218337
0.0095578977
0.0096423515
0.0097589234
0.0098927773
0.010032068
0.010167337
0.010290618
0.010395474
0.010474717
0.01051991
0.010526772
0.010484127
0.01039047
0.010238814
0.010027279
0.0097522016
0.0094135604
0.0090122066
0.0085517776
0.0080372466
0.0074753209
0.0068736429
0.0062407141
0.0055858193
0.0049190829
0.0042511292
0.0035926423
0.0029539828
0.0023448993
0.0017742588
0.0012497978
0.00077861335
0.00036810677
2.6892724e-05
-0.0002344703
-0.00040318803
-0.00046434224
-0.00040127028
-0.00019608005
0.00016986406
0.00071539346
0.0014589728
0.0024181011
0.0036082923
0.0050417274
0.0067263211
0.0086645793
0.010853492
0.013282016
0.015928269
0.018753626
0.02170356
0.024662715
0.02759581
0.030418949
0.032928497
0.034924734
0.036153041
0.036308567
0.035049829
0.03207868
0.027299754
0.021051999