/*--------------------------------*- C++ -*----------------------------------*\
| =========                 |                                                 |
| \\      /  F ield         | OpenFOAM: The Open Source CFD Toolbox           |
|  \\    /   O peration     | Version:  2.4.0                                 |
|   \\  /    A nd           | Web:      www.OpenFOAM.org                      |
|    \\/     M anipulation  |                                                 |
\*---------------------------------------------------------------------------*/
FoamFile
{
    version     2.0;
    format      ascii;
    class       volSymmTensorField;
    location    "300";
    object      R;
}
// * * * * * * * * * * * * * * * * * * * * * * * * * * * * * * * * * * * * * //

dimensions      [0 2 -2 0 0 0 0];

internalField   nonuniform List<symmTensor> 
32000
(
(0.02728465 -2.92128e-07 -9.9502935e-27 0.027284644 -1.6770966e-26 0.027284647)
(0.0088225814 -8.0605389e-08 -5.0121837e-23 0.0088225813 -2.1324952e-26 0.0088225813)
(0.022700645 -1.9593129e-07 -1.2187486e-22 0.022700667 3.2851923e-24 0.022700656)
(0.0082945439 -5.724891e-08 -1.7894579e-23 0.0082945614 1.3131953e-24 0.0082945527)
(0.006202829 -2.0322938e-08 -6.4774401e-24 0.0062028411 9.1912411e-25 0.0062028351)
(0.00036209906 -8.0356153e-11 -2.3901096e-26 0.0003620991 8.9059025e-27 0.00036209908)
(0.00084042419 2.4574913e-09 8.8038412e-25 0.00084042009 -3.1640264e-25 0.00084042213)
(7.8219626e-05 1.4149935e-09 7.2482301e-28 7.8216128e-05 2.3705738e-27 7.8217873e-05)
(0.00023034442 8.107191e-10 3.6814837e-25 0.00023034162 -2.1784749e-25 0.00023034302)
(0.00012757088 3.6940721e-10 2.0089201e-25 0.00012756916 -1.2849791e-25 0.00012757002)
(0.00012796976 2.1825373e-10 -3.9814886e-27 0.00012796844 -1.1309084e-27 0.0001279691)
(0.00010357726 1.3926762e-10 -7.6847089e-28 0.00010357618 -2.3908753e-27 0.00010357672)
(9.2630994e-05 9.3099819e-11 -7.0431717e-27 9.2630113e-05 -8.9323721e-27 9.2630553e-05)
(8.1830548e-05 6.468618e-11 2.624773e-27 8.1829826e-05 4.6408625e-27 8.1830187e-05)
(7.4007873e-05 4.7011536e-11 2.7920866e-27 7.4007288e-05 2.929297e-27 7.400758e-05)
(6.7684974e-05 3.5109862e-11 -4.2509504e-27 6.768452e-05 -4.0768538e-27 6.7684747e-05)
(6.2859047e-05 2.8815679e-11 5.6953479e-26 6.2858687e-05 -6.5512503e-26 6.2858867e-05)
(5.9403645e-05 2.5840425e-11 5.2109762e-26 5.9403351e-05 -4.8560083e-26 5.9403498e-05)
(5.6813692e-05 2.3374432e-11 1.6959176e-26 5.6813448e-05 -2.5853821e-26 5.681357e-05)
(5.4658512e-05 2.0854653e-11 1.4353485e-26 5.465831e-05 -2.1489037e-26 5.4658411e-05)
(5.2734212e-05 1.807705e-11 -7.7245163e-27 5.2734047e-05 -9.6592881e-27 5.2734129e-05)
(5.0969778e-05 1.4820439e-11 4.6681327e-27 5.0969651e-05 6.0146999e-27 5.0969715e-05)
(4.9283089e-05 1.1285276e-11 -1.2078967e-27 4.9282997e-05 -1.0153274e-27 4.9283043e-05)
(4.7636924e-05 7.3632841e-12 -2.4346276e-27 4.7636866e-05 -2.8786407e-27 4.7636895e-05)
(4.5968956e-05 3.320299e-12 -2.8181241e-27 4.5968932e-05 -3.6893341e-27 4.5968944e-05)
(4.4253047e-05 -2.27053e-13 1.8047437e-27 4.425305e-05 2.3377628e-27 4.4253049e-05)
(4.238408e-05 -4.6483853e-12 4.8610064e-27 4.2384117e-05 6.6103818e-27 4.2384099e-05)
(4.0377623e-05 -1.1195002e-11 6.6122125e-27 4.0377708e-05 8.4856405e-27 4.0377666e-05)
(3.837306e-05 -2.0148446e-11 -2.184991e-27 3.8373205e-05 -2.5185828e-27 3.8373133e-05)
(3.645372e-05 -3.1097362e-11 2.3405362e-27 3.645393e-05 2.5111513e-27 3.6453825e-05)
(3.4640557e-05 -4.3240274e-11 3.0408895e-27 3.4640826e-05 2.7222358e-27 3.4640691e-05)
(3.2940572e-05 -5.5101702e-11 -3.5407665e-27 3.2940882e-05 -4.1514359e-27 3.2940727e-05)
(3.1361177e-05 -6.4808633e-11 -2.6543708e-27 3.1361503e-05 -4.2544735e-27 3.136134e-05)
(2.9908168e-05 -7.057721e-11 3.2209866e-28 2.9908482e-05 -1.0238081e-28 2.9908325e-05)
(2.8603682e-05 -7.1435401e-11 -3.9675813e-26 2.8603959e-05 3.4589874e-26 2.8603821e-05)
(2.7506433e-05 -6.7407672e-11 -3.4730579e-26 2.7506658e-05 2.7736853e-26 2.7506545e-05)
(2.6667572e-05 -5.9258346e-11 -3.0216049e-26 2.6667741e-05 1.0566145e-26 2.6667657e-05)
(2.6028438e-05 -4.8112082e-11 -2.1658217e-26 2.6028554e-05 1.0523148e-26 2.6028496e-05)
(2.5527555e-05 -3.5863919e-11 -2.099054e-27 2.5527628e-05 -4.6017162e-27 2.5527591e-05)
(2.5159454e-05 -2.4318845e-11 1.0120938e-27 2.5159496e-05 2.2437952e-27 2.5159475e-05)
(2.4944578e-05 -1.438784e-11 -1.6111135e-28 2.4944598e-05 -6.9623617e-28 2.4944588e-05)
(2.4912494e-05 -6.3454134e-12 -1.8477637e-28 2.4912501e-05 -6.9222001e-28 2.4912497e-05)
(2.5111201e-05 -2.2695065e-13 7.4804958e-29 2.5111201e-05 6.183679e-28 2.5111201e-05)
(2.5598083e-05 4.8567075e-12 4.2086e-29 2.559808e-05 1.4952623e-28 2.5598081e-05)
(2.6509038e-05 9.1520557e-12 8.9239543e-29 2.6509034e-05 8.6060275e-28 2.6509036e-05)
(2.8018079e-05 1.125346e-11 7.993421e-27 2.8018076e-05 -4.3888178e-28 2.8018077e-05)
(3.1255553e-05 1.0403937e-11 7.3973974e-27 3.1255553e-05 -6.4768828e-29 3.1255553e-05)
(3.5049011e-05 7.3581637e-12 3.8299651e-31 3.5049011e-05 7.597384e-32 3.5049011e-05)
(3.7558279e-05 3.5152761e-12 2.5103269e-33 3.7558279e-05 -4.0509947e-31 3.7558279e-05)
(3.9675033e-05 -4.834452e-13 8.9643025e-34 3.9675033e-05 4.175658e-31 3.9675033e-05)
(4.1483973e-05 -6.0315182e-12 -2.1165342e-33 4.1483973e-05 -1.7737231e-31 4.1483973e-05)
(4.3094828e-05 -1.3997799e-11 3.2795005e-33 4.3094828e-05 -2.0769272e-31 4.3094828e-05)
(4.4539115e-05 -2.4848655e-11 4.3094844e-34 4.4539116e-05 4.0816655e-31 4.4539115e-05)
(4.5849244e-05 -3.8206203e-11 -4.8597616e-33 4.5849244e-05 -1.5112856e-31 4.5849244e-05)
(4.7044292e-05 -5.3382393e-11 3.1906104e-33 4.7044293e-05 -1.3389011e-32 4.7044293e-05)
(4.814006e-05 -6.9000423e-11 2.8161773e-33 4.8140061e-05 -1.0719218e-31 4.8140061e-05)
(4.9148573e-05 -8.3489399e-11 -5.9310135e-26 4.9148573e-05 8.5240582e-29 4.9148573e-05)
(5.0079691e-05 -9.5106668e-11 -6.7617392e-26 5.0079691e-05 6.8739921e-29 5.0079691e-05)
(5.0941444e-05 -1.0231191e-10 3.6325344e-26 5.0941444e-05 -2.2660871e-29 5.0941444e-05)
(5.1740671e-05 -1.0385803e-10 3.6902625e-26 5.1740671e-05 -9.1062252e-30 5.1740671e-05)
(5.2483271e-05 -9.8994036e-11 7.0324862e-26 5.2483271e-05 1.3288121e-29 5.2483271e-05)
(5.317428e-05 -8.7611299e-11 6.2284226e-26 5.317428e-05 4.531735e-29 5.317428e-05)
(5.3818098e-05 -7.044854e-11 -4.2389326e-35 5.3818098e-05 -2.9346096e-32 5.3818098e-05)
(5.4418624e-05 -4.9236208e-11 4.6518441e-34 5.4418624e-05 2.4506902e-32 5.4418624e-05)
(5.4979288e-05 -2.6789568e-11 7.5648857e-34 5.4979288e-05 -3.7732754e-32 5.4979288e-05)
(5.5503133e-05 -6.9588756e-12 -7.1095843e-35 5.5503132e-05 1.8658906e-32 5.5503133e-05)
(5.5992928e-05 8.4803962e-12 6.8068556e-34 5.5992927e-05 -1.9816725e-33 5.5992927e-05)
(5.6451129e-05 3.6107005e-11 1.2822479e-26 5.6451128e-05 -8.7290719e-29 5.6451129e-05)
(5.6879933e-05 8.271283e-11 5.8785315e-26 5.6879931e-05 -2.5316033e-28 5.6879932e-05)
(5.7281353e-05 1.5137719e-10 5.3829542e-26 5.7281351e-05 -1.7069275e-28 5.7281352e-05)
(5.7657212e-05 2.4405116e-10 -1.3103595e-33 5.7657209e-05 4.2475361e-33 5.7657211e-05)
(5.8009209e-05 3.6134137e-10 8.9380075e-33 5.8009206e-05 1.7127584e-32 5.8009207e-05)
(5.8338814e-05 5.0238358e-10 1.13411e-33 5.8338811e-05 -2.9528609e-32 5.8338813e-05)
(5.8647457e-05 6.6486355e-10 2.1654859e-32 5.8647453e-05 3.001271e-32 5.8647455e-05)
(5.8936388e-05 8.4521793e-10 -2.7693853e-32 5.8936384e-05 -2.8068585e-32 5.8936386e-05)
(5.9206759e-05 1.0390202e-09 -4.2227998e-32 5.9206755e-05 1.043399e-32 5.9206757e-05)
(5.9459801e-05 1.2414021e-09 -4.408346e-25 5.9459797e-05 4.2729245e-28 5.9459799e-05)
(5.9696387e-05 1.4473044e-09 -5.1416813e-25 5.9696383e-05 4.3656843e-28 5.9696385e-05)
(5.9917802e-05 1.6514336e-09 -1.2261716e-33 5.9917798e-05 9.9808744e-33 5.99178e-05)
(6.012459e-05 1.8477596e-09 5.8032442e-32 6.0124586e-05 1.4856473e-31 6.0124588e-05)
(6.0318046e-05 2.0286733e-09 -2.9404284e-33 6.0318042e-05 -1.4172056e-31 6.0318044e-05)
(6.0498116e-05 2.1842455e-09 7.756762e-25 6.0498113e-05 -3.4051762e-28 6.0498115e-05)
(6.0664612e-05 2.3016093e-09 8.176266e-25 6.066461e-05 -2.5754229e-28 6.0664611e-05)
(6.0818764e-05 2.3650766e-09 -6.7862583e-32 6.0818763e-05 9.6167067e-32 6.0818764e-05)
(6.0960961e-05 2.3563949e-09 1.7873174e-32 6.0960961e-05 2.4979252e-31 6.0960961e-05)
(6.1092059e-05 2.2553258e-09 6.6006924e-32 6.1092062e-05 -7.9354258e-31 6.1092061e-05)
(6.1212448e-05 2.0435727e-09 -1.3038094e-32 6.1212453e-05 -2.3906526e-31 6.1212451e-05)
(6.1323135e-05 1.7111807e-09 -2.4869453e-32 6.1323143e-05 4.5468303e-31 6.1323139e-05)
(6.1421387e-05 1.2651323e-09 1.1009184e-32 6.1421397e-05 4.7856046e-31 6.1421392e-05)
(6.1513713e-05 7.6636002e-10 5.9975691e-33 6.1513724e-05 -1.1606433e-30 6.1513718e-05)
(6.1595273e-05 3.0082695e-10 -4.4345959e-33 6.1595282e-05 7.6705015e-31 6.1595277e-05)
(6.1667844e-05 8.7583077e-12 3.1108628e-27 6.1667849e-05 4.3697674e-28 6.1667847e-05)
(6.1731701e-05 -3.0525178e-10 -1.0852531e-25 6.1731715e-05 1.339031e-27 6.1731707e-05)
(6.178703e-05 -1.4611449e-09 1.8301536e-32 6.1787066e-05 -9.7633321e-31 6.1787047e-05)
(6.1833992e-05 -3.9881203e-09 -1.3085334e-32 6.1834061e-05 1.8167132e-31 6.1834024e-05)
(6.1872767e-05 -8.482685e-09 2.9748461e-32 6.187288e-05 2.1358694e-31 6.187282e-05)
(6.190346e-05 -1.5373702e-08 -5.4649965e-24 6.1903621e-05 1.5221565e-26 6.1903535e-05)
(6.1926183e-05 -2.4355296e-08 -8.6581856e-24 6.1926371e-05 1.7852451e-26 6.1926271e-05)
(6.1941029e-05 -3.3623678e-08 2.7708479e-32 6.194119e-05 1.1240114e-30 6.1941104e-05)
(6.1947992e-05 -3.9723802e-08 -5.8095694e-33 6.1948054e-05 -9.6267121e-32 6.1948021e-05)
(6.1947008e-05 -3.9404623e-08 8.1223369e-33 6.1946928e-05 8.8159529e-32 6.1946971e-05)
(6.1938442e-05 -3.2193065e-08 1.8231873e-32 6.1938254e-05 -1.8329082e-32 6.1938355e-05)
(6.1922023e-05 -2.1554617e-08 7.6625621e-24 6.1921815e-05 1.9650199e-26 6.1921926e-05)
(6.1897506e-05 -1.2053041e-08 4.2845868e-24 6.1897349e-05 1.4792513e-26 6.1897433e-05)
(6.1864993e-05 -5.8634778e-09 4.5856801e-32 6.1864901e-05 -2.6472067e-33 6.186495e-05)
(6.1824391e-05 -2.6115691e-09 -1.3699781e-32 6.1824346e-05 7.2315756e-33 6.182437e-05)
(6.1775571e-05 -1.092907e-09 -3.8821328e-25 6.1775549e-05 -2.0053436e-27 6.1775561e-05)
(6.1718373e-05 -4.2030256e-10 1.4792122e-28 6.1718364e-05 7.9295543e-31 6.1718369e-05)
(6.1652625e-05 -1.5050897e-10 5.350188e-26 6.1652621e-05 3.2990527e-28 6.1652623e-05)
(6.157811e-05 -6.9530624e-11 5.3276771e-34 6.1578109e-05 5.3120335e-32 6.1578109e-05)
(6.1494575e-05 -7.5790309e-11 2.0135926e-33 6.1494576e-05 -6.0238167e-32 6.1494575e-05)
(6.1401766e-05 -1.531211e-10 -1.7510923e-33 6.1401769e-05 1.4895028e-31 6.1401767e-05)
(6.1299374e-05 -3.2504788e-10 -5.6117508e-34 6.1299379e-05 8.89203e-32 6.1299376e-05)
(6.1187053e-05 -6.0601206e-10 -1.9632579e-32 6.1187061e-05 -2.1150856e-31 6.1187057e-05)
(6.1064447e-05 -9.951632e-10 3.8265612e-32 6.1064456e-05 -4.7858823e-31 6.1064451e-05)
(6.0931138e-05 -1.484385e-09 -2.7438696e-32 6.0931149e-05 3.7117502e-31 6.0931143e-05)
(6.0786678e-05 -2.0547966e-09 -3.2994216e-32 6.0786691e-05 1.331422e-31 6.0786684e-05)
(6.0630586e-05 -2.6747237e-09 1.7379721e-32 6.0630599e-05 -9.0341212e-31 6.0630592e-05)
(6.0462307e-05 -3.2959712e-09 8.1278116e-32 6.0462319e-05 -3.7309751e-31 6.0462313e-05)
(6.028126e-05 -3.8693678e-09 -1.2917773e-31 6.0281271e-05 1.1145054e-31 6.0281265e-05)
(6.0086816e-05 -4.3684081e-09 1.5518652e-24 6.0086826e-05 -8.6303235e-28 6.0086821e-05)
(5.9878264e-05 -4.7847728e-09 1.6991278e-24 5.9878271e-05 -6.9324557e-28 5.9878267e-05)
(5.9654856e-05 -5.1229434e-09 -1.8199508e-24 5.9654862e-05 5.2592124e-28 5.9654859e-05)
(5.9415779e-05 -5.3795509e-09 -1.9103065e-24 5.9415783e-05 3.233731e-28 5.9415781e-05)
(5.9160106e-05 -5.5248167e-09 -1.3263457e-31 5.9160107e-05 1.909273e-31 5.9160107e-05)
(5.8886877e-05 -5.5113596e-09 1.9580017e-24 5.8886874e-05 3.349472e-28 5.8886876e-05)
(5.8595042e-05 -5.2899055e-09 1.8784272e-24 5.8595035e-05 7.9686349e-28 5.8595039e-05)
(5.828341e-05 -4.8384887e-09 -3.4394664e-24 5.8283398e-05 -2.5274349e-27 5.8283405e-05)
(5.7950744e-05 -4.1813222e-09 -2.970774e-24 5.7950728e-05 -3.2638098e-27 5.7950737e-05)
(5.7595663e-05 -3.3921849e-09 7.1051099e-32 5.7595645e-05 6.9143765e-32 5.7595655e-05)
(5.721661e-05 -2.5701647e-09 9.1394518e-25 5.7216592e-05 1.8119242e-27 5.7216602e-05)
(5.6811962e-05 -1.8076534e-09 6.4241851e-25 5.6811946e-05 1.6349197e-27 5.6811955e-05)
(5.6379916e-05 -1.1636789e-09 5.0015742e-32 5.6379903e-05 1.2728077e-30 5.6379911e-05)
(5.591841e-05 -6.6434069e-10 2.4593253e-32 5.5918399e-05 -1.9194581e-31 5.5918405e-05)
(5.5425261e-05 -3.0885164e-10 -5.8860996e-26 5.5425254e-05 -2.0683804e-27 5.5425258e-05)
(5.4898018e-05 -8.729204e-11 -1.1129608e-26 5.4898013e-05 -2.148766e-24 5.4898016e-05)
(5.4333918e-05 1.0855345e-11 1.4298249e-26 5.4333915e-05 -1.1573975e-24 5.4333917e-05)
(5.3729949e-05 1.2260751e-10 8.4452308e-26 5.3729944e-05 3.1817038e-27 5.3729947e-05)
(5.3082671e-05 3.7429227e-10 8.0621003e-26 5.3082663e-05 4.2806601e-24 5.3082667e-05)
(5.2388207e-05 7.888895e-10 -1.0596037e-25 5.2388196e-05 6.472065e-24 5.2388202e-05)
(5.1642173e-05 1.4040648e-09 -1.490396e-25 5.1642157e-05 -5.9760161e-27 5.1642166e-05)
(5.0839551e-05 2.2689327e-09 -2.1369261e-31 5.0839529e-05 -5.4326105e-30 5.0839541e-05)
(4.9974516e-05 3.4422001e-09 -1.7239599e-32 4.9974487e-05 -2.0604455e-30 4.9974503e-05)
(4.9040299e-05 4.989728e-09 3.7673354e-31 4.9040262e-05 6.0186416e-30 4.9040282e-05)
(4.8028808e-05 6.9813749e-09 4.2400123e-31 4.8028761e-05 -3.5428068e-30 4.8028786e-05)
(4.6930246e-05 9.4835025e-09 -4.9336939e-31 4.6930188e-05 1.2703591e-29 4.6930219e-05)
(4.5732747e-05 1.2553105e-08 7.3532059e-31 4.5732678e-05 -2.1427275e-29 4.5732715e-05)
(4.4420541e-05 1.6217451e-08 -1.5153829e-30 4.4420459e-05 1.9318477e-29 4.4420502e-05)
(4.2974637e-05 2.0480109e-08 3.4606405e-31 4.2974544e-05 -3.3825654e-29 4.2974592e-05)
(4.1362783e-05 2.5203436e-08 -1.354506e-30 4.1362681e-05 1.2556175e-29 4.1362733e-05)
(3.9553636e-05 3.0257012e-08 4.5595012e-30 3.9553537e-05 7.1925542e-30 3.9553587e-05)
(3.7437326e-05 3.4475465e-08 -3.0015764e-30 3.743725e-05 -1.2696602e-30 3.7437285e-05)
(3.4929413e-05 3.7107501e-08 -2.9807254e-29 3.4929462e-05 3.055859e-29 3.4929433e-05)
(3.1147485e-05 2.8370259e-08 -2.4941387e-27 3.1148412e-05 -1.3746138e-27 3.1147935e-05)
(2.7924693e-05 1.7561352e-08 7.3734415e-27 2.7928661e-05 -6.6100311e-26 2.7926675e-05)
(2.6427761e-05 1.3624833e-08 2.1644263e-26 2.6433876e-05 -9.9116597e-26 2.6430819e-05)
(2.551707e-05 1.0822457e-08 -1.7889413e-27 2.5524418e-05 4.7214273e-26 2.5520745e-05)
(2.5023904e-05 9.085329e-09 1.4183398e-27 2.5032258e-05 -5.5389429e-26 2.5028083e-05)
(2.4828045e-05 7.9128418e-09 2.0624035e-27 2.483733e-05 -2.1426639e-26 2.4832689e-05)
(2.4850599e-05 7.0789595e-09 8.3126436e-27 2.4860825e-05 -8.7609021e-26 2.4855714e-05)
(2.5052422e-05 6.4537088e-09 9.9351688e-27 2.5063664e-05 3.71422e-26 2.5058045e-05)
(2.5423521e-05 6.0049345e-09 6.1669919e-27 2.543595e-05 2.7888803e-26 2.5429737e-05)
(2.5925328e-05 5.6492568e-09 4.0834602e-26 2.5939099e-05 -7.8049354e-26 2.5932216e-05)
(2.6569346e-05 5.3549282e-09 -2.3638766e-26 2.6584637e-05 -7.3553529e-27 2.6576994e-05)
(2.7400529e-05 5.1270896e-09 1.0390159e-25 2.7417635e-05 -1.0930802e-25 2.7409085e-05)
(2.8478613e-05 5.0647292e-09 -4.6946822e-26 2.8498244e-05 8.9231535e-26 2.8488433e-05)
(2.9778397e-05 5.1436901e-09 8.3813041e-27 2.9801247e-05 -4.2788953e-26 2.9789829e-05)
(3.1214314e-05 5.2584631e-09 -9.3974415e-27 3.1240724e-05 -1.647163e-26 3.1227529e-05)
(3.277281e-05 5.3801271e-09 -3.6375845e-26 3.2802956e-05 -3.8515109e-26 3.2787897e-05)
(3.4448881e-05 5.4974221e-09 -6.5434735e-26 3.448275e-05 -8.6226284e-26 3.4465834e-05)
(3.6233848e-05 5.6080594e-09 1.7295504e-26 3.6271234e-05 3.1939308e-26 3.6252565e-05)
(3.8124947e-05 5.7184652e-09 -6.7296142e-26 3.8165464e-05 -4.5609137e-26 3.8145234e-05)
(4.0096823e-05 5.8376772e-09 -4.337602e-24 4.0139927e-05 -3.2891986e-24 4.0118409e-05)
(4.2073163e-05 5.921568e-09 -4.5393096e-24 4.2117829e-05 -3.3993673e-24 4.2095534e-05)
(4.3907169e-05 5.8370992e-09 -4.8413643e-26 4.3951777e-05 3.4043356e-26 4.3929513e-05)
(4.557368e-05 5.5062778e-09 6.9158962e-26 4.5616499e-05 -6.0736373e-26 4.559513e-05)
(4.7151336e-05 4.9690567e-09 -3.6976108e-25 4.7191187e-05 3.4764082e-25 4.71713e-05)
(4.877735e-05 4.3596852e-09 -3.5732828e-24 4.881359e-05 -2.8556866e-24 4.8795506e-05)
(5.040704e-05 3.6923133e-09 -3.5433425e-24 5.0439108e-05 -1.9715224e-24 5.0423107e-05)
(5.2113266e-05 3.0120081e-09 -3.3303681e-26 5.2140858e-05 -1.7445019e-26 5.2127091e-05)
(5.396548e-05 2.3563307e-09 1.4204653e-25 5.3988488e-05 -1.1478317e-25 5.3977009e-05)
(5.6033843e-05 1.7527065e-09 -2.1543876e-25 5.6052292e-05 2.2074828e-25 5.6043087e-05)
(5.8512589e-05 1.2210498e-09 9.9759552e-26 5.8526645e-05 -5.959324e-26 5.8519633e-05)
(6.184078e-05 7.9139949e-10 -1.0905739e-25 6.1850797e-05 9.1511846e-26 6.18458e-05)
(6.6529137e-05 4.7735009e-10 -1.5459841e-25 6.6535448e-05 1.9192458e-25 6.65323e-05)
(7.2576377e-05 2.4004381e-10 8.3407718e-26 7.2579483e-05 -1.0253918e-25 7.2577933e-05)
(8.0344582e-05 3.2476199e-11 1.6768643e-27 8.0345004e-05 -3.0761123e-27 8.0344793e-05)
(8.9901487e-05 -1.1217056e-10 -8.9692716e-26 8.9900515e-05 1.0926046e-25 8.9901e-05)
(0.0001032252 -9.3548782e-10 2.8347468e-25 0.00010321823 -3.6509633e-25 0.00010322171)
(0.00011684903 -3.6298082e-09 -4.3433572e-25 0.00011682742 5.1700478e-25 0.00011683819)
(0.00014662818 -1.1267613e-08 -1.2942836e-25 0.00014657636 4.3894527e-25 0.00014660219)
(0.00014841159 -2.8263378e-08 -3.3930484e-25 0.0001483145 1.7818092e-25 0.00014836291)
(0.00026012013 -6.9362721e-08 2.7735663e-23 0.00025994953 1.3307413e-23 0.0002600346)
(9.5202377e-05 -8.9215007e-08 3.2064219e-23 9.5055433e-05 1.1599233e-23 9.5128733e-05)
(0.00082176231 -1.7404398e-07 6.8049181e-27 0.00082157962 -4.5287309e-25 0.0008216708)
(0.00035561724 -1.0349302e-07 -7.5146294e-26 0.00035555258 -1.4640841e-25 0.00035558488)
(0.0059173198 -1.9982611e-07 9.508534e-26 0.0059172555 2.4466821e-25 0.0059172877)
(0.0087127001 -1.5008458e-07 -4.8793203e-26 0.0087126825 2.2534997e-26 0.0087126913)
(0.024069099 -2.456061e-07 1.527135e-22 0.024069097 2.7548489e-25 0.024069098)
(0.00900553 -7.3279629e-08 4.5558472e-23 0.0090055313 -2.2339877e-25 0.0090055307)
(0.0073580048 -1.5733014e-07 -4.404625e-27 0.0073580019 -1.0289798e-26 0.0073580033)
(0.0034326657 -7.3344796e-08 4.1745611e-23 0.0034326654 1.6603026e-26 0.0034326655)
(0.0069652368 -1.2046815e-07 2.1840845e-22 0.0069652499 -5.9639264e-24 0.0069652433)
(0.0033061387 -4.890437e-08 7.3386486e-23 0.0033061528 -5.3641147e-24 0.0033061457)
(0.0025901068 -2.0175458e-08 5.7910735e-24 0.0025901181 -7.6740559e-25 0.0025901125)
(0.00016568953 -3.1988746e-10 2.9982861e-26 0.00016568968 -9.2612215e-27 0.00016568961)
(0.00042545138 2.5550379e-09 -9.7908075e-25 0.00042544692 3.4953329e-25 0.00042544915)
(6.4202849e-05 2.3557602e-09 6.4382225e-27 6.4196991e-05 2.2136737e-27 6.4199924e-05)
(0.00013900516 1.1020014e-09 -4.8112318e-25 0.00013900138 3.0303105e-25 0.00013900327)
(8.5363953e-05 5.6060537e-10 -3.005344e-25 8.5361365e-05 1.9018308e-25 8.536266e-05)
(8.3534929e-05 3.209164e-10 -2.9459665e-27 8.3532989e-05 -1.2139828e-26 8.353396e-05)
(6.9176723e-05 2.0596801e-10 -1.8406906e-27 6.9175142e-05 -5.9498189e-27 6.9175933e-05)
(6.1895119e-05 1.361529e-10 8.5055886e-27 6.1893836e-05 8.6730643e-28 6.1894478e-05)
(5.4874875e-05 9.355191e-11 5.5792144e-25 5.4873837e-05 -4.8096135e-25 5.4874357e-05)
(4.9549324e-05 6.7007378e-11 4.2987979e-25 4.9548497e-05 -3.9074756e-25 4.9548911e-05)
(4.5143249e-05 4.9128116e-11 -5.5572085e-27 4.514262e-05 -3.5640575e-27 4.5142935e-05)
(4.1639031e-05 3.9238341e-11 -7.8670404e-26 4.1638547e-05 7.683922e-26 4.1638789e-05)
(3.8996159e-05 3.4180102e-11 -5.5295517e-26 3.8995773e-05 7.2854181e-26 3.8995966e-05)
(3.6935932e-05 3.0074836e-11 -2.1521741e-26 3.693562e-05 2.9259951e-26 3.6935776e-05)
(3.5191976e-05 2.6110834e-11 -2.0076188e-26 3.5191725e-05 2.2235332e-26 3.5191851e-05)
(3.3630324e-05 2.2022901e-11 8.6487769e-27 3.3630126e-05 8.8764881e-27 3.3630225e-05)
(3.2202362e-05 1.7536407e-11 -5.1108349e-27 3.2202213e-05 -7.3966554e-27 3.2202287e-05)
(3.0855761e-05 1.2937355e-11 -1.1005303e-26 3.0855657e-05 -1.4301379e-26 3.0855709e-05)
(2.9564467e-05 8.1634894e-12 3.8587402e-27 2.9564405e-05 4.7567517e-27 2.9564436e-05)
(2.8291332e-05 3.5967418e-12 1.768217e-27 2.8291308e-05 2.4612601e-27 2.829132e-05)
(2.7017357e-05 5.6799045e-14 -1.7963194e-27 2.701736e-05 -2.560597e-27 2.7017359e-05)
(2.567814e-05 -4.1452397e-12 -2.7801777e-27 2.5678176e-05 -3.9067966e-27 2.5678158e-05)
(2.4266389e-05 -1.0805869e-11 -1.1266989e-27 2.4266475e-05 -8.0474481e-28 2.4266432e-05)
(2.2851363e-05 -2.0176978e-11 1.6413165e-27 2.2851514e-05 1.6233645e-27 2.2851439e-05)
(2.1482598e-05 -3.1751588e-11 7.3595803e-27 2.1482818e-05 1.1174422e-26 2.1482708e-05)
(2.017459e-05 -4.4523709e-11 2.1104667e-27 2.0174872e-05 5.9746661e-27 2.0174731e-05)
(1.8933119e-05 -5.6738002e-11 3.9946195e-27 1.8933442e-05 5.285846e-27 1.8933281e-05)
(1.7763515e-05 -6.6245298e-11 1.0668336e-26 1.776385e-05 1.7729544e-26 1.7763683e-05)
(1.6669788e-05 -7.1118255e-11 8.1981653e-28 1.6670104e-05 -5.8097763e-28 1.6669946e-05)
(1.5664163e-05 -7.04916e-11 3.2318017e-26 1.5664435e-05 -3.9133849e-26 1.5664299e-05)
(1.4778778e-05 -6.4749915e-11 3.7637823e-26 1.4778992e-05 -1.4458499e-26 1.4778885e-05)
(1.404454e-05 -5.5156385e-11 2.1676952e-26 1.4044695e-05 -1.6973713e-26 1.4044617e-05)
(1.3438759e-05 -4.3245878e-11 8.9119644e-26 1.3438861e-05 -5.0145086e-26 1.343881e-05)
(1.2931461e-05 -3.1068e-11 5.2770787e-26 1.2931523e-05 -1.5664849e-26 1.2931492e-05)
(1.2519568e-05 -2.0344855e-11 -3.4573446e-26 1.2519602e-05 4.5938425e-27 1.2519585e-05)
(1.2212086e-05 -1.1774486e-11 -1.6951461e-26 1.2212102e-05 7.2750879e-27 1.2212094e-05)
(1.2022058e-05 -5.3723446e-12 -1.4497037e-28 1.2022063e-05 -5.4707681e-28 1.2022061e-05)
(1.1971066e-05 -9.0912409e-13 -7.191895e-28 1.1971066e-05 -1.0731417e-28 1.1971066e-05)
(1.2087331e-05 2.6211251e-12 4.3966796e-27 1.2087329e-05 1.0576463e-28 1.208733e-05)
(1.2433567e-05 5.9185256e-12 -1.5987131e-28 1.2433564e-05 -1.6342842e-27 1.2433565e-05)
(1.3101339e-05 7.8723948e-12 -5.5884375e-27 1.3101337e-05 7.2132914e-28 1.3101338e-05)
(1.4577461e-05 7.7911636e-12 -5.3457362e-27 1.4577461e-05 1.6526219e-29 1.4577461e-05)
(1.6296657e-05 5.9599745e-12 6.6522966e-32 1.6296657e-05 2.3095171e-31 1.6296657e-05)
(1.7449537e-05 3.2902336e-12 2.8297192e-33 1.7449537e-05 4.6604257e-32 1.7449537e-05)
(1.8413348e-05 4.0179158e-13 2.290407e-33 1.8413348e-05 -2.0602038e-31 1.8413348e-05)
(1.9237735e-05 -3.7330565e-12 -6.7241427e-33 1.9237736e-05 6.892249e-32 1.9237735e-05)
(1.9970311e-05 -1.0066421e-11 7.6655921e-27 1.9970312e-05 -8.5706762e-29 1.9970311e-05)
(2.0626792e-05 -1.9018249e-11 1.419472e-26 2.0626792e-05 -1.0527319e-28 2.0626792e-05)
(2.1221745e-05 -3.0275321e-11 -1.1464983e-32 2.1221746e-05 -2.6483006e-31 2.1221745e-05)
(2.1764102e-05 -4.321949e-11 1.671802e-33 2.1764103e-05 3.0069228e-31 2.1764103e-05)
(2.22611e-05 -5.6621368e-11 7.4794962e-33 2.22611e-05 1.7600508e-31 2.22611e-05)
(2.271828e-05 -6.907042e-11 5.1965772e-26 2.271828e-05 -7.483184e-29 2.271828e-05)
(2.3140168e-05 -7.9009883e-11 5.9261983e-26 2.3140169e-05 -6.037036e-29 2.3140169e-05)
(2.3530461e-05 -8.5068212e-11 -3.2017987e-26 2.3530461e-05 2.0386292e-29 2.3530461e-05)
(2.3892293e-05 -8.614959e-11 9.3678974e-26 2.3892293e-05 3.6678215e-29 2.3892293e-05)
(2.4228364e-05 -8.1614203e-11 1.7792244e-25 2.4228364e-05 2.4829576e-28 2.4228364e-05)
(2.4540984e-05 -7.1406873e-11 5.0820917e-26 2.4540983e-05 1.8925873e-28 2.4540983e-05)
(2.4832163e-05 -5.6232972e-11 -1.4438206e-32 2.4832162e-05 6.3190779e-33 2.4832163e-05)
(2.5103684e-05 -3.7684497e-11 8.5476507e-34 2.5103683e-05 -8.9064358e-33 2.5103683e-05)
(2.5357113e-05 -1.8320401e-11 -1.0834919e-33 2.5357111e-05 -1.4731008e-32 2.5357112e-05)
(2.5593842e-05 -1.6032536e-12 1.3206273e-33 2.5593841e-05 4.4093729e-32 2.5593841e-05)
(2.5815129e-05 1.2743007e-11 6.5826764e-34 2.5815127e-05 -3.9508728e-32 2.5815128e-05)
(2.6022102e-05 4.0600768e-11 -1.1731972e-26 2.6022099e-05 7.9887726e-29 2.6022101e-05)
(2.6215757e-05 8.6183528e-11 -2.2541296e-25 2.6215753e-05 1.5753535e-27 2.6215755e-05)
(2.6397013e-05 1.5212324e-10 -3.5719534e-25 2.6397008e-05 1.9416069e-27 2.639701e-05)
(2.6566696e-05 2.3995098e-10 -1.7159761e-32 2.656669e-05 1.3534961e-33 2.6566693e-05)
(2.6725578e-05 3.4989266e-10 2.8032613e-32 2.6725571e-05 2.3000499e-34 2.6725575e-05)
(2.6874332e-05 4.80772e-10 -5.139358e-32 2.6874324e-05 -2.365373e-33 2.6874328e-05)
(2.7013607e-05 6.3006177e-10 6.3140239e-33 2.7013597e-05 1.6191709e-32 2.7013602e-05)
(2.7143977e-05 7.9410492e-10 1.1463774e-31 2.7143966e-05 -1.4140998e-32 2.7143971e-05)
(2.7265975e-05 9.6849963e-10 -7.3970737e-32 2.7265965e-05 1.3667322e-33 2.726597e-05)
(2.7380163e-05 1.1485077e-09 3.9401601e-25 2.7380152e-05 -3.8188067e-28 2.7380157e-05)
(2.7486971e-05 1.3293013e-09 4.5807241e-25 2.748696e-05 -3.8885594e-28 2.7486965e-05)
(2.7586977e-05 1.5059274e-09 3.3363383e-33 2.7586967e-05 -1.6841726e-32 2.7586972e-05)
(2.768047e-05 1.6728736e-09 1.7600306e-31 2.7680461e-05 2.1172682e-31 2.7680465e-05)
(2.7767968e-05 1.8233432e-09 5.6419449e-32 2.7767959e-05 -5.0705663e-31 2.7767963e-05)
(2.7849425e-05 1.9486226e-09 -6.8853328e-25 2.7849419e-05 3.0229573e-28 2.7849422e-05)
(2.792474e-05 2.0375662e-09 -7.2390979e-25 2.7924736e-05 2.2832322e-28 2.7924738e-05)
(2.7994394e-05 2.0767196e-09 6.3915723e-32 2.7994394e-05 6.4369479e-31 2.7994394e-05)
(2.8058599e-05 2.0505727e-09 -4.4032502e-24 2.8058603e-05 -1.1660199e-27 2.8058601e-05)
(2.8117741e-05 1.9423604e-09 -4.1918737e-24 2.811775e-05 -3.1438924e-27 2.8117745e-05)
(2.8172023e-05 1.7378225e-09 -1.4712537e-31 2.8172039e-05 -2.6791098e-31 2.8172031e-05)
(2.8223462e-05 1.430639e-09 1.3762948e-31 2.8223484e-05 -4.2934756e-31 2.8223473e-05)
(2.8263754e-05 1.0315112e-09 -1.5211803e-24 2.8263781e-05 -6.3983844e-27 2.8263767e-05)
(2.8307792e-05 5.9630425e-10 -8.997755e-25 2.8307821e-05 -6.7311437e-27 2.8307807e-05)
(2.8344544e-05 2.035724e-10 -9.8741785e-33 2.8344569e-05 3.4092214e-31 2.8344557e-05)
(2.837725e-05 -1.8424361e-11 -2.8768414e-27 2.8377263e-05 -4.052753e-28 2.8377257e-05)
(2.8406012e-05 -3.5362311e-10 1.0069722e-25 2.8406051e-05 -1.2424282e-27 2.8406032e-05)
(2.8430921e-05 -1.4761188e-09 2.2322022e-33 2.8431016e-05 1.14305e-30 2.8430969e-05)
(2.8452049e-05 -3.8354397e-09 -9.3000564e-33 2.8452229e-05 2.4128248e-31 2.8452141e-05)
(2.8469479e-05 -7.9414398e-09 8.1575508e-32 2.846977e-05 -1.14274e-30 2.8469627e-05)
(2.8483266e-05 -1.413469e-08 4.8939446e-24 2.8483675e-05 -1.3630271e-26 2.8483473e-05)
(2.8493486e-05 -2.2090238e-08 7.7271921e-24 2.8493961e-05 -1.5933357e-26 2.8493727e-05)
(2.8500216e-05 -3.018101e-08 -1.8208426e-31 2.8500621e-05 -7.7096314e-31 2.8500422e-05)
(2.8503238e-05 -3.5406576e-08 1.3508159e-32 2.8503394e-05 -2.752098e-31 2.8503317e-05)
(2.8502777e-05 -3.5033282e-08 -8.3227303e-33 2.8502583e-05 -9.2104909e-32 2.8502679e-05)
(2.8499283e-05 -2.87078e-08 -1.9856513e-31 2.8498819e-05 3.9200654e-32 2.8499048e-05)
(2.8492107e-05 -1.9389522e-08 -6.714478e-24 2.8491592e-05 -1.7218685e-26 2.8491845e-05)
(2.848103e-05 -1.0994886e-08 3.9020441e-24 2.8480637e-05 3.4364635e-26 2.8480831e-05)
(2.8466336e-05 -5.4492886e-09 3.7686397e-24 2.8466102e-05 2.8000788e-26 2.8466217e-05)
(2.8448016e-05 -2.4848783e-09 4.2196423e-32 2.8447898e-05 -1.1063688e-33 2.8447956e-05)
(2.8426018e-05 -1.0753726e-09 3.481066e-25 2.8425962e-05 1.7981403e-27 2.8425989e-05)
(2.8400259e-05 -4.4005504e-10 -5.2964669e-29 2.8400234e-05 -2.607815e-31 2.8400247e-05)
(2.8370654e-05 -1.7888768e-10 -5.0022569e-26 2.8370645e-05 -3.0849643e-28 2.8370649e-05)
(2.8337104e-05 -9.799279e-11 -3.621553e-34 2.8337102e-05 3.1524982e-32 2.8337103e-05)
(2.8299491e-05 -1.0737295e-10 -2.6272302e-33 2.8299494e-05 -2.7072755e-33 2.8299493e-05)
(2.8257699e-05 -1.905165e-10 9.5176409e-33 2.8257706e-05 -2.1579802e-32 2.8257703e-05)
(2.8211588e-05 -3.6330647e-10 -1.1398953e-33 2.8211601e-05 -6.9310572e-32 2.8211595e-05)
(2.8161002e-05 -6.3404733e-10 -3.802778e-33 2.8161021e-05 -1.3026637e-31 2.8161012e-05)
(2.8105781e-05 -9.9990241e-10 5.8191972e-32 2.8105805e-05 1.9939933e-31 2.8105793e-05)
(2.8045736e-05 -1.4528395e-09 -1.1325756e-31 2.8045765e-05 -1.6931862e-31 2.8045751e-05)
(2.7980663e-05 -1.9754631e-09 -2.1068366e-32 2.7980695e-05 -2.0322478e-32 2.7980679e-05)
(2.7910346e-05 -2.538868e-09 -2.0869259e-31 2.791038e-05 1.501972e-30 2.7910363e-05)
(2.7834535e-05 -3.0999016e-09 -2.5553374e-32 2.7834566e-05 1.7277627e-31 2.7834551e-05)
(2.7752965e-05 -3.6149823e-09 3.9882729e-31 2.7752993e-05 -2.8733192e-30 2.7752979e-05)
(2.7665352e-05 -4.0599427e-09 -1.3876172e-24 2.7665376e-05 7.7379605e-28 2.7665364e-05)
(2.7571373e-05 -4.426141e-09 -1.5214128e-24 2.7571393e-05 6.1930453e-28 2.7571383e-05)
(2.7470689e-05 -4.7149172e-09 1.6265051e-24 2.7470704e-05 -4.6642828e-28 2.7470697e-05)
(2.7362932e-05 -4.9200762e-09 1.7095994e-24 2.7362943e-05 -2.8971368e-28 2.7362937e-05)
(2.7247684e-05 -5.0134242e-09 -1.754237e-31 2.7247687e-05 -5.7159435e-31 2.7247685e-05)
(2.7124509e-05 -4.9534417e-09 -1.7463714e-24 2.7124502e-05 -2.9960935e-28 2.7124505e-05)
(2.6992931e-05 -4.7004955e-09 -1.6770471e-24 2.6992912e-05 -7.1103522e-28 2.6992921e-05)
(2.6852408e-05 -4.2422648e-09 3.0612907e-24 2.6852378e-05 2.2492208e-27 2.6852392e-05)
(2.6702375e-05 -3.6085605e-09 2.6472952e-24 2.6702336e-05 2.9078566e-27 2.6702355e-05)
(2.6542208e-05 -2.8717576e-09 7.3359396e-32 2.6542164e-05 -7.4452561e-31 2.6542185e-05)
(2.6371199e-05 -2.1230476e-09 -3.9435559e-24 2.6371156e-05 -1.2133649e-26 2.6371177e-05)
(2.6188609e-05 -1.443903e-09 -2.7362033e-24 2.618857e-05 -1.0871995e-26 2.6188589e-05)
(2.5993618e-05 -8.8359188e-10 -5.2269827e-32 2.5993586e-05 -5.3909037e-30 2.5993601e-05)
(2.5785293e-05 -4.6163173e-10 4.2456151e-32 2.5785269e-05 4.404185e-30 2.5785281e-05)
(2.5562641e-05 -1.7443785e-10 4.3862903e-32 2.5562624e-05 -1.4019764e-30 2.5562632e-05)