/*--------------------------------*- C++ -*----------------------------------*\
| =========                 |                                                 |
| \\      /  F ield         | OpenFOAM: The Open Source CFD Toolbox           |
|  \\    /   O peration     | Version:  2.4.0                                 |
|   \\  /    A nd           | Web:      www.OpenFOAM.org                      |
|    \\/     M anipulation  |                                                 |
\*---------------------------------------------------------------------------*/
FoamFile
{
    version     2.0;
    format      ascii;
    class       volVectorField;
    location    "300";
    object      U;
}
// * * * * * * * * * * * * * * * * * * * * * * * * * * * * * * * * * * * * * //

dimensions      [0 1 -1 0 0 0 0];

internalField   nonuniform List<vector> 
32000
(
(0.0068094811 3.4383385e-05 -1.2124101e-21)
(0.0048659831 1.4939993e-06 -1.1272983e-22)
(0.0065061802 -0.00017838958 -2.9578137e-22)
(0.0047944891 -0.00037225376 -8.6166729e-21)
(0.0027454227 -0.00041601279 1.9653256e-20)
(2.6485469e-06 -7.6323902e-06 4.2408466e-20)
(-0.0018395227 0.00064892914 -2.2880513e-21)
(-0.0020780767 0.00098225769 4.0851666e-21)
(-0.0016244702 0.00093234196 5.7485194e-20)
(-0.0012766741 0.00083753927 -3.6866646e-20)
(-0.0010853497 0.00078234855 -4.3417268e-20)
(-0.0009702732 0.00074764258 -1.0656291e-19)
(-0.00086994996 0.00070266737 -1.1596012e-19)
(-0.00078001138 0.00065011051 -7.4132754e-20)
(-0.00069466302 0.00058987084 6.6502357e-22)
(-0.00060209806 0.0005145571 -4.3402298e-20)
(-0.00052755809 0.00044829691 -6.3760577e-21)
(-0.00047197998 0.00039504341 3.8562177e-20)
(-0.00042409598 0.00034932134 4.5036324e-20)
(-0.00037957675 0.00030802509 6.9044144e-20)
(-0.00033441747 0.00026767828 4.4291049e-20)
(-0.0002841582 0.00022461158 -4.2098134e-20)
(-0.00022891649 0.00017892615 -1.6084871e-19)
(-0.00016287072 0.00012599257 4.7198966e-20)
(-8.2715522e-05 6.3243525e-05 6.3227466e-20)
(1.1436755e-05 -9.391635e-06 -1.6592468e-19)
(0.00011388385 -8.774954e-05 9.2235505e-20)
(0.00021725302 -0.00016586917 1.0143879e-19)
(0.00031996755 -0.00024129325 -8.1532725e-20)
(0.00041388071 -0.0003066693 1.9150602e-19)
(0.00049266605 -0.00035652195 -2.31115e-20)
(0.00054940465 -0.00038566805 1.2583754e-19)
(0.00057876724 -0.00039107176 1.6544777e-19)
(0.00057819404 -0.00037268444 -9.635837e-20)
(0.00054927925 -0.00033403664 -1.850266e-19)
(0.00049715229 -0.0002815659 8.3091033e-20)
(0.00042882155 -0.00022336846 -2.8569424e-20)
(0.00034987518 -0.0001659073 -6.807306e-20)
(0.00026688435 -0.00011379035 1.0407589e-19)
(0.00018697672 -7.0575165e-05 -3.6190955e-20)
(0.00011424825 -3.7458135e-05 -3.118141e-20)
(5.0452072e-05 -1.4085261e-05 -1.0711621e-19)
(-3.1571244e-06 4.339072e-07 -3.2908134e-20)
(-4.6016519e-05 7.4454127e-06 8.3103138e-21)
(-7.7384761e-05 8.4710406e-06 -5.3316232e-20)
(-9.1624555e-05 5.0040343e-06 -1.8571441e-21)
(-8.6869536e-05 5.1977157e-07 7.616064e-22)
(-6.4767096e-05 -1.3288167e-07 -4.9434812e-25)
(-3.1448836e-05 -2.1615529e-07 6.014658e-24)
(1.0003747e-05 -3.0873161e-07 -6.1216345e-24)
(6.3309924e-05 -3.9891448e-07 3.590026e-24)
(0.00012444186 -4.813632e-07 -9.4246997e-25)
(0.00019169997 -5.4960809e-07 -5.702155e-24)
(0.00026013002 -6.0081688e-07 3.3858044e-24)
(0.00032619573 -6.3300845e-07 -5.4762551e-26)
(0.00038563457 -6.459247e-07 1.1006392e-24)
(0.00043520619 -6.3990713e-07 -1.118264e-24)
(0.00047189399 -6.1572298e-07 3.4552983e-24)
(0.00049340923 -5.7576242e-07 -3.3019312e-25)
(0.00049773467 -5.2131731e-07 -2.979892e-24)
(0.00048314141 -4.5372546e-07 6.7226807e-25)
(0.00044808223 -3.7135599e-07 -4.6545999e-25)
(0.00039132727 -2.762879e-07 -6.8508447e-25)
(0.00031205014 -1.7173115e-07 1.8369108e-26)
(0.00021004577 -6.1583427e-08 -3.7910817e-25)
(8.6087213e-05 4.929828e-08 -2.0314712e-25)
(-5.7954029e-05 1.5686656e-07 5.3803504e-25)
(-0.0002197218 2.5872133e-07 -5.2302985e-26)
(-0.00039636784 3.5340704e-07 3.5363457e-25)
(-0.00058474089 4.4052536e-07 -4.1695498e-26)
(-0.00078157305 5.2046093e-07 -3.7987403e-26)
(-0.00098354009 5.9371708e-07 -1.1805979e-26)
(-0.0011873012 6.6080356e-07 -3.846984e-26)
(-0.0013895988 7.2224499e-07 2.4465693e-27)
(-0.001587409 7.7875026e-07 6.8145645e-26)
(-0.0017781238 8.3110883e-07 1.0809732e-27)
(-0.0019596378 8.7979761e-07 -1.6459101e-26)
(-0.0021302582 9.2441452e-07 -1.0130658e-25)
(-0.0022884457 9.6303685e-07 1.6785435e-25)
(-0.0024323447 9.914397e-07 1.3916075e-26)
(-0.0025591997 1.0032175e-06 6.7628892e-27)
(-0.0026649591 9.9066061e-07 1.5713151e-24)
(-0.0027438811 9.445006e-07 -1.1185654e-24)
(-0.0027884054 8.5812169e-07 -3.8230838e-25)
(-0.0027887391 7.2332214e-07 -3.7209306e-25)
(-0.0027319141 5.1751623e-07 1.9994722e-24)
(-0.0026017678 2.2697287e-07 -1.1757918e-24)
(-0.0023790149 -1.6347421e-07 -1.5628111e-24)
(-0.0020388737 -6.566771e-07 7.4594771e-25)
(-0.0015744807 -1.1744909e-06 -4.6635038e-25)
(-0.00096731578 -1.8392446e-06 -5.2402482e-25)
(-0.00017014372 -2.6839641e-06 2.1378674e-24)
(0.00083625298 -3.6112658e-06 -2.0495714e-24)
(0.0020752176 -4.6489303e-06 4.1900391e-24)
(0.0035675356 -5.7307633e-06 -5.6367415e-25)
(0.0053051136 -6.6987496e-06 -4.4599346e-25)
(0.0072245234 -7.2423654e-06 -7.6123799e-26)
(0.009161079 -6.8832438e-06 -4.6455636e-25)
(0.010816004 -5.1179029e-06 -5.4169613e-25)
(0.011787202 -1.8432014e-06 3.4373186e-26)
(0.011743613 2.3159962e-06 4.3410217e-26)
(0.010589839 6.0093744e-06 3.17908e-26)
(0.0086166126 7.9385175e-06 -1.3010965e-25)
(0.0063803548 7.8067121e-06 3.5089338e-26)
(0.0043810854 6.3406803e-06 1.4978135e-26)
(0.0028542371 4.5750063e-06 -7.8627315e-27)
(0.0017766684 3.1463812e-06 -3.070321e-26)
(0.0010279417 2.0918947e-06 4.8111691e-26)
(0.00053707963 1.1384036e-06 2.2021072e-25)
(0.00030239369 1.4301139e-07 9.5852206e-26)
(0.0003197358 -7.656451e-07 -1.0003639e-24)
(0.0005341668 -1.41454e-06 -1.7447979e-25)
(0.00087169689 -1.7586129e-06 -2.8863156e-25)
(0.0012680429 -1.868909e-06 1.5063268e-24)
(0.0016860855 -1.8498818e-06 -5.8227153e-26)
(0.0021078924 -1.7556995e-06 -1.4434417e-25)
(0.0025193206 -1.5962523e-06 -2.1068013e-24)
(0.0029062547 -1.3726012e-06 1.8976635e-24)
(0.0032516775 -1.0849787e-06 1.8201796e-24)
(0.0035431875 -7.7305217e-07 -2.0686764e-24)
(0.0037807589 -4.7351399e-07 -4.7384968e-26)
(0.0039703916 -1.9749743e-07 1.556122e-24)
(0.0041210706 6.4870087e-08 -1.9250455e-25)
(0.0042362545 3.6169938e-07 -2.2531672e-25)
(0.0043070041 7.3869643e-07 -1.2780634e-24)
(0.004315908 1.2326934e-06 2.0911938e-25)
(0.0042416477 1.8362652e-06 1.8217211e-25)
(0.0040680064 2.4964943e-06 3.018587e-25)
(0.0037901026 3.1459044e-06 3.7579717e-25)
(0.0034186643 3.7103721e-06 4.447816e-25)
(0.0029769549 4.138729e-06 -3.4402763e-24)
(0.0024942925 4.4174419e-06 4.7565546e-24)
(0.0019958467 4.5636306e-06 -5.979513e-24)
(0.0015000095 4.6181419e-06 3.5861818e-24)
(0.001013317 4.619758e-06 -4.5427454e-24)
(0.000534794 4.5962287e-06 3.5693558e-17)
(5.7520883e-05 4.5654083e-06 3.9954796e-17)
(-0.00042925647 4.5353724e-06 6.1970939e-24)
(-0.00093768234 4.5061706e-06 -4.7607459e-17)
(-0.0014793038 4.4735073e-06 -5.1097819e-17)
(-0.0020645137 4.4326617e-06 -2.8535138e-23)
(-0.0027020866 4.377991e-06 7.6854486e-24)
(-0.0033987659 4.302043e-06 -1.5264432e-23)
(-0.0041592581 4.1944411e-06 8.0687336e-24)
(-0.0049863489 4.0383626e-06 1.7964714e-23)
(-0.0058798805 3.8087978e-06 -3.3896646e-23)
(-0.0068373977 3.4720328e-06 2.6418755e-23)
(-0.0078510656 2.9811356e-06 -3.3738522e-23)
(-0.0089131633 2.2690622e-06 5.9307338e-23)
(-0.0099929913 1.2225462e-06 -3.2675136e-23)
(-0.011077878 -3.7441167e-07 -6.6223538e-24)
(-0.011980417 -3.0434974e-06 1.0629274e-24)
(-0.012635144 -7.631167e-06 1.2532267e-24)
(-0.011230691 -8.5491648e-05 2.021553e-21)
(-0.008921303 -0.00049217525 1.2440189e-19)
(-0.0079389149 -0.00087230618 1.7068448e-20)
(-0.00714406 -0.0011723792 -3.1583413e-20)
(-0.0066246631 -0.0014439332 2.4260517e-20)
(-0.0062738048 -0.001699661 -1.3683472e-19)
(-0.0060397329 -0.0019489666 -9.6898865e-20)
(-0.0058899478 -0.0022020562 1.8793069e-19)
(-0.0058239047 -0.0024683088 -3.9256075e-20)
(-0.0058122378 -0.0027467526 -7.2751332e-20)
(-0.0058445158 -0.0030391018 -6.6734188e-20)
(-0.0059297462 -0.0033558862 2.1944835e-19)
(-0.0061296741 -0.003729997 9.4327187e-20)
(-0.0064222799 -0.0041432728 1.9534169e-20)
(-0.0067379426 -0.0045556873 1.9381924e-19)
(-0.00705172 -0.0049505679 1.5190847e-19)
(-0.0073450863 -0.0053112695 -6.1625836e-20)
(-0.0076045349 -0.0056241309 5.5161666e-20)
(-0.0078209409 -0.0058779601 -2.8532348e-22)
(-0.0079894012 -0.0060652837 1.2088557e-19)
(-0.0080745579 -0.0061583335 -1.217731e-19)
(-0.0080217073 -0.0061336287 6.3838145e-20)
(-0.0078113748 -0.0059954407 2.4070983e-19)
(-0.0074806553 -0.0057825751 -7.336965e-19)
(-0.0070772984 -0.0055152898 -7.8230713e-20)
(-0.0065993948 -0.0051925919 -7.5317766e-19)
(-0.0060613627 -0.0048232053 -1.0543857e-19)
(-0.0054730774 -0.0044109497 -2.6451144e-20)
(-0.0048381002 -0.0039542305 5.2807544e-19)
(-0.0041583985 -0.0034512822 8.5079011e-19)
(-0.0034458646 -0.0029021127 2.193079e-19)
(-0.0026781855 -0.0022675738 -1.2183212e-18)
(-0.0018261588 -0.0015365421 -3.4465934e-19)
(-0.00059942908 -0.00049387837 7.5248639e-19)
(0.0009545547 0.00076479557 -8.0121289e-19)
(0.0027838678 0.0021218488 2.0584034e-19)
(0.005053284 0.0036007486 2.7612829e-19)
(0.0079667403 0.0051689902 6.481612e-19)
(0.011532401 0.0065573198 -3.9335275e-19)
(0.015501916 0.0072909322 1.1839709e-19)
(0.018374663 0.0065178445 -1.7174118e-20)
(0.018442894 0.0044957318 -1.4216862e-21)
(0.016130151 0.0024325105 3.9825691e-20)
(0.012891282 0.0010146783 2.1019901e-20)
(0.0092822721 0.00026198225 -2.2778525e-21)
(0.0073763239 1.8729251e-06 1.193373e-22)
(0.0041890168 -2.110566e-05 3.273117e-22)
(0.020649332 9.9129968e-05 2.8803691e-21)
(0.01520484 6.9092324e-06 2.2986004e-22)
(0.019741846 -0.00053978081 7.0414568e-21)
(0.014779754 -0.0011096242 2.3524503e-20)
(0.008698638 -0.0012566616 -5.552566e-21)
(0.00048361335 -5.8220951e-05 -7.7806462e-20)
(-0.0052589462 0.0019179355 -1.5399316e-21)
(-0.0061812063 0.0029501495 -1.4784894e-20)
(-0.0048981069 0.0028203185 -3.593967e-20)
(-0.0038667184 0.0025425471 2.0150307e-20)
(-0.0032890675 0.0023777196 7.2077828e-20)
(-0.0029395476 0.0022727093 1.3494608e-19)
(-0.002636014 0.0021366627 2.3833032e-19)
(-0.002363515 0.0019772227 1.8099779e-20)
(-0.0021054659 0.0017942142 -5.1836895e-20)
(-0.0018263436 0.0015658486 1.2877767e-19)
(-0.0016001203 0.0013642697 2.0746665e-19)
(-0.0014306844 0.0012017914 2.0971682e-20)
(-0.0012845417 0.0010621368 1.1720071e-19)
(-0.0011485432 0.0009359137 7.4138773e-20)
(-0.0010108342 0.0008126419 2.1151143e-19)
(-0.00085801577 0.00068126627 -1.2568133e-19)
(-0.00069048897 0.00054204547 2.0817779e-19)
(-0.00049120328 0.00038114848 5.4152889e-20)
(-0.00025020631 0.00019085091 8.9864847e-20)
(3.2679722e-05 -2.9232195e-05 5.9658702e-20)
(0.00034070035 -0.00026662953 -3.5303677e-19)
(0.00065133117 -0.00050316147 -3.7881167e-19)
(0.00096010743 -0.00073147841 1.576788e-19)
(0.001243129 -0.00092954175 -2.6906089e-19)
(0.0014816438 -0.0010808504 -4.5030483e-20)
(0.0016551063 -0.0011697907 -4.4731314e-20)
(0.0017474929 -0.0011871465 -9.1997532e-20)
(0.0017508253 -0.0011326569 1.0372767e-19)
(0.0016693406 -0.0010168131 4.3789284e-20)
(0.0015176908 -0.00085882975 -2.1546349e-19)
(0.0013162646 -0.0006830077 1.1954784e-19)
(0.0010815067 -0.00050893847 6.5312076e-20)
(0.00083291671 -0.00035063201 8.5740521e-21)
(0.00059191353 -0.00021892732 -2.5385322e-20)
(0.00037116078 -0.00011758641 5.4224728e-20)
(0.00017625729 -4.5685564e-05 1.3689362e-19)
(1.1166364e-05 -6.4161409e-07 1.2413967e-20)
(-0.00012224763 2.15122e-05 -1.3975495e-20)
(-0.00022169508 2.5223657e-05 2.834017e-20)
(-0.00027011039 1.4919493e-05 1.9227844e-21)
(-0.00026132321 1.1577317e-06 1.7650636e-22)
(-0.00020100897 -1.0777438e-06 -3.0083644e-24)
(-0.00010755583 -1.4502471e-06 9.8639952e-24)
(1.0207299e-05 -1.8554992e-06 -1.140889e-23)
(0.00016340081 -2.2433908e-06 2.9747947e-24)
(0.00034007306 -2.5275329e-06 7.9922523e-24)
(0.00053513168 -2.6781952e-06 -6.0780725e-24)
(0.00073385448 -2.6677691e-06 4.0907591e-25)
(0.00092571433 -2.5045548e-06 3.7489444e-25)
(0.0010980409 -2.1968132e-06 1.1730824e-24)
(0.001241172 -1.7660295e-06 -5.5472191e-25)
(0.0013461083 -1.2305315e-06 9.5810917e-25)
(0.0014059929 -6.1071111e-07 -5.7940336e-24)
(0.0014147948 8.1815348e-08 5.9554184e-24)
(0.0013673617 8.3709838e-07 5.1947549e-25)
(0.0012590788 1.6497187e-06 -4.2686583e-24)
(0.001086241 2.5050851e-06 1.351873e-24)
(0.00084630974 3.3822973e-06 -6.052261e-25)
(0.00053858534 4.2500973e-06 1.4741299e-24)
(0.00016531176 5.0680967e-06 -4.7250844e-25)
(-0.00026794219 5.8052006e-06 -4.9333116e-25)
(-0.00075412891 6.442689e-06 1.6746876e-25)
(-0.0012845765 6.9654245e-06 3.7151944e-25)
(-0.0018495305 7.3651083e-06 -9.9518944e-26)
(-0.002438743 7.6382723e-06 -1.6566025e-26)
(-0.0030417086 7.7834024e-06 -1.8113139e-25)
(-0.0036478581 7.8016799e-06 3.2915842e-25)
(-0.0042469205 7.6990936e-06 -2.6083068e-25)
(-0.0048294196 7.4881571e-06 1.4412547e-25)
(-0.0053872362 7.1865798e-06 -7.4074224e-26)
(-0.0059138742 6.8119694e-06 -3.4531763e-26)
(-0.0064041873 6.3751749e-06 -1.0837209e-25)
(-0.0068535875 5.8730592e-06 -2.3396933e-25)
(-0.0072566426 5.2818044e-06 -8.0569846e-25)
(-0.0076053648 4.5580122e-06 7.141922e-25)
(-0.0078879836 3.6442613e-06 1.3078548e-24)
(-0.0080877483 2.4713086e-06 -1.9659587e-24)
(-0.0081824965 9.652746e-07 -4.730742e-26)
(-0.0081433808 -9.7243002e-07 -7.8156864e-25)
(-0.0079323062 -3.4771074e-06 1.6902087e-24)
(-0.0075022647 -6.6716019e-06 2.4458022e-24)
(-0.0067969536 -1.0698026e-05 -8.1910329e-25)
(-0.0057471453 -1.5411057e-05 -3.7820641e-24)
(-0.004329959 -2.0503861e-05 9.5798842e-24)
(-0.0024861732 -2.6897279e-05 -8.3985814e-24)
(-8.6258578e-05 -3.4638815e-05 4.1966959e-24)
(0.0029186441 -4.3109411e-05 -1.969737e-24)
(0.0065961484 -5.2454462e-05 1.4354998e-24)
(0.011000592 -6.2033152e-05 -7.6141809e-26)
(0.016100322 -7.0246266e-05 -7.4281223e-26)
(0.021702654 -7.4099954e-05 3.0987772e-25)
(0.02732637 -6.907379e-05 9.4726325e-25)
(0.03211372 -5.0562218e-05 -8.8261165e-25)
(0.034922105 -1.7868266e-05 7.8483702e-26)
(0.034817462 2.3179172e-05 -1.5176223e-25)
(0.031514152 6.0402353e-05 -9.3411639e-27)
(0.025804019 8.1182423e-05 1.9958281e-25)
(0.019261882 8.1574534e-05 -2.97823e-26)
(0.013347369 6.7828254e-05 -7.538953e-27)
(0.008786283 5.0056821e-05 -2.4448702e-26)
(0.0055531018 3.5079172e-05 6.6520792e-26)
(0.0033200315 2.3802788e-05 -5.6470332e-26)
(0.001881867 1.3908807e-05 4.5187692e-25)
(0.0012187861 4.0922924e-06 -1.2773373e-24)
(0.0012986452 -4.586763e-06 2.3619704e-24)
(0.001946652 -1.0759026e-05 -2.2596933e-24)
(0.002943983 -1.4239804e-05 -7.5266761e-25)
(0.0041065823 -1.5751485e-05 3.0589857e-25)
(0.0053298214 -1.6209653e-05 3.4847407e-24)
(0.0065626392 -1.6060056e-05 -2.0460178e-24)
(0.0077637393 -1.5366218e-05 1.5565782e-24)
(0.008891328 -1.4079816e-05 2.0308072e-24)
(0.0098956985 -1.2212125e-05 -4.1777859e-25)
(0.010740633 -1.0099461e-05 1.7760891e-24)
(0.011424611 -8.097107e-06 -5.3926842e-24)
(0.011962864 -6.3714642e-06 4.1106164e-24)
(0.012377915 -4.8868314e-06 -7.7625857e-24)
(0.012675877 -3.2930264e-06 1.84281e-24)
(0.01282826 -1.1938952e-06 7.5340225e-25)
(0.012783743 1.6644652e-06 6.4579801e-25)
(0.01248192 5.2579129e-06 5.9457401e-25)
(0.011879587 9.2513085e-06 1.5551669e-25)
(0.010968158 1.3127953e-05 -6.1786064e-25)
(0.0097852296 1.6338326e-05 -7.4238306e-25)
(0.0084039478 1.8522059e-05 3.2144327e-25)
(0.0069134854 1.9643511e-05 -2.935115e-24)
(0.0053881428 1.990695e-05 -1.8672238e-24)
(0.0038811754 1.9680754e-05 -2.2209362e-24)
(0.0024104509 1.9336782e-05 2.1396056e-23)
(0.00097154579 1.9137014e-05 -3.1547629e-23)
(-0.00045725104 1.9269306e-05 3.1586471e-23)
(-0.0019090326 1.9834205e-05 -1.838322e-23)
(-0.0034211196 2.084862e-05 -2.3458129e-24)
(-0.0050291268 2.2277328e-05 -7.5366408e-24)
(-0.0067653128 2.4066615e-05 -3.0225158e-24)
(-0.008656881 2.6144579e-05 1.9432822e-23)
(-0.010724437 2.8431067e-05 2.4757069e-23)
(-0.012981631 3.0846808e-05 -2.9560399e-23)
(-0.015435216 3.3294728e-05 -8.4923967e-24)
(-0.018082029 3.5663433e-05 3.3517702e-24)
(-0.020910537 3.7805774e-05 2.0062606e-23)
(-0.023892103 3.9578273e-05 -2.6416596e-24)
(-0.026994928 4.0599784e-05 -2.6741117e-24)
(-0.030120014 4.0529519e-05 1.4413464e-23)
(-0.033205082 3.7011915e-05 -3.6963865e-24)
(-0.035702818 2.7516617e-05 6.4784846e-25)
(-0.037363487 -1.1205594e-05 -4.5138398e-23)
(-0.033321128 -0.00028886394 -9.0851868e-23)
(-0.026771826 -0.0015206769 4.5524332e-21)
(-0.02389406 -0.0026571262 2.1676806e-19)
(-0.021586339 -0.0035712836 -8.7788187e-20)
(-0.020076265 -0.0043997793 1.250048e-19)
(-0.019057279 -0.0051828472 2.0623961e-19)
(-0.018379743 -0.0059476256 3.6050131e-19)
(-0.017949012 -0.006724185 -2.9364837e-19)
(-0.017760565 -0.0075391477 -3.0083773e-20)
(-0.017730453 -0.0083903345 3.3820122e-19)
(-0.017830648 -0.0092831864 6.0253751e-20)
(-0.018089233 -0.010249122 1.7985937e-19)
(-0.018675896 -0.011380719 -3.7011239e-19)
(-0.019522168 -0.012622564 8.1452427e-20)
(-0.020429296 -0.013857732 -1.8471842e-19)
(-0.021324985 -0.015036091 -1.4016882e-19)
(-0.02215548 -0.016108191 1.2955757e-19)
(-0.022881969 -0.01703357 -8.8172382e-20)
(-0.023478138 -0.017779041 -7.0087123e-21)
(-0.023927506 -0.018321469 -1.6514707e-19)
(-0.0241283 -0.018579879 4.9548256e-21)
(-0.02392656 -0.018488402 -1.6470771e-19)
(-0.023270381 -0.0180623 -9.940994e-20)
(-0.022265248 -0.017414999 -1.6042656e-19)
(-0.021046605 -0.0166044 1.5272886e-19)
(-0.019610233 -0.015628796 -5.6540692e-19)
(-0.017997872 -0.014513533 1.0227908e-19)
(-0.016237645 -0.013269549 4.6656544e-19)
(-0.014339809 -0.011891879 -1.3791651e-18)
(-0.012310146 -0.010374936 -5.6862734e-19)
(-0.010181084 -0.0087168362 -7.551862e-19)
(-0.0078880568 -0.0068012907 1.9404605e-19)
(-0.0053392997 -0.0045940446 1.1901313e-18)
(-0.0016604975 -0.0014428525 -7.5269825e-19)
(0.0029611345 0.002341625 -5.8226774e-19)
(0.008367817 0.0064039198 1.6119494e-18)
(0.01506173 0.010818148 -1.7696776e-18)
(0.023624599 0.015476259 -1.2850399e-18)
(0.034067673 0.019573746 1.0669363e-19)
(0.045652427 0.021708605 -2.1168482e-19)
(0.054125005 0.019418827 -6.4860013e-20)
(0.054652132 0.013479735 1.7320629e-19)
(0.048301579 0.0073836549 3.920968e-20)
(0.039061537 0.003145413 -8.406642e-20)
(0.028576436 0.00085571266 -3.71897e-21)
(0.022811361 5.175057e-05 -1.0704665e-21)
(0.013525559 -5.9661684e-05 3.4230351e-21)
(0.035138735 0.00016099085 4.4521093e-22)
(0.026495759 1.5854426e-05 1.2504708e-22)
(0.033556092 -0.00091175974 6.7221826e-22)
(0.025489764 -0.0018529968 -3.9672922e-20)
(0.015338587 -0.00213423 -2.7431931e-20)
(0.0015245487 -0.0001834064 7.3799165e-20)
(-0.0084809958 0.0031443461 6.3538166e-21)
(-0.010347807 0.0049426862 -6.5482414e-21)
(-0.0082986737 0.0047660526 -1.9202349e-20)
(-0.0065763458 0.004314651 -1.2935496e-20)
(-0.0055967113 0.0040403604 1.3420989e-20)
(-0.0050011292 0.0038625561 -8.5129132e-20)
(-0.004485719 0.0036322942 -1.8014418e-19)
(-0.0040224892 0.0033616597 1.4727327e-20)
(-0.0035841975 0.0030505094 1.7783496e-19)
(-0.0031109809 0.0026634396 1.1213607e-20)
(-0.0027254051 0.0023206766 -1.0857311e-19)
(-0.0024355803 0.0020435141 -2.3160191e-19)
(-0.0021854993 0.0018049702 -9.0795135e-20)
(-0.0019527161 0.001589155 -6.4849071e-21)
(-0.0017173693 0.0013784211 -1.8528637e-19)
(-0.0014568376 0.0011542204 1.4333181e-19)
(-0.0011717966 0.00091687751 2.2926723e-19)
(-0.00083402403 0.00064334593 -1.1878102e-19)
(-0.00042667768 0.0003206918 -4.3056991e-20)
(5.126132e-05 -5.2046486e-05 -3.7471344e-20)
(0.00057208307 -0.00045400995 2.794448e-19)
(0.0010971318 -0.00085413054 1.5953162e-19)
(0.0016191832 -0.0012401605 -1.4652798e-19)
(0.0020986054 -0.001575244 -3.287069e-20)
(0.0025039974 -0.0018316405 -1.298109e-19)
(0.0028009583 -0.0019831216 2.6448435e-20)
(0.0029624195 -0.0020140942 -1.6105789e-19)
(0.0029745662 -0.0019239387 -1.0891445e-19)
(0.0028439003 -0.0017300568 1.0425329e-19)
(0.0025942676 -0.0014644456 -1.7593906e-20)
(0.0022592861 -0.0011677881 7.3335728e-20)
(0.0018663268 -0.00087322293 1.1711348e-19)
(0.0014479562 -0.00060452032 -6.6876628e-20)
(0.0010402257 -0.00038012336 2.3018134e-19)
(0.0006648998 -0.00020665189 -1.1506268e-19)
(0.00033182753 -8.2830258e-05 -9.3903148e-20)
(4.7899608e-05 -4.5155777e-06 -2.5904482e-20)
(-0.00018354678 3.4780217e-05 -3.667573e-20)
(-0.00035859833 4.2258565e-05 2.0635552e-20)
(-0.00044837255 2.5189416e-05 -2.1303808e-20)
(-0.00044160038 1.4551111e-06 1.2219273e-21)
(-0.00034889579 -3.0128231e-06 -1.1853574e-23)
(-0.00020099097 -4.1000981e-06 3.3054981e-24)
(-1.2160945e-05 -5.2666218e-06 5.6947346e-24)
(0.00023614273 -6.3950354e-06 3.4951628e-25)
(0.00052403803 -7.2056729e-06 -1.3681622e-24)
(0.00084292223 -7.6230083e-06 -6.5307511e-24)
(0.0011682322 -7.5569538e-06 1.1760563e-23)
(0.0014823415 -7.0387564e-06 -8.3720111e-24)
(0.0017640914 -6.0910167e-06 -3.3218356e-24)
(0.0019972877 -4.7813397e-06 4.4708175e-24)
(0.0021668472 -3.1658231e-06 2.1469666e-24)
(0.0022612289 -1.3011251e-06 -2.9210666e-24)
(0.0022703022 7.7942001e-07 1.8619536e-25)
(0.0021854376 3.0487093e-06 -3.4308053e-24)
(0.0019989034 5.4787368e-06 3.9423444e-24)
(0.0017044412 8.0288126e-06 -9.5736926e-25)
(0.0012976949 1.064034e-05 2.9661852e-25)
(0.00077736701 1.3220817e-05 -1.806624e-26)
(0.00014713349 1.5648945e-05 -2.0143836e-24)
(-0.00058364448 1.7831478e-05 2.2672945e-24)
(-0.0014031757 1.9709317e-05 -1.6643433e-24)
(-0.0022966616 2.1231313e-05 6.2171171e-25)
(-0.0032472534 2.2367342e-05 1.9099755e-25)
(-0.00423707 2.310306e-05 -5.8515464e-26)
(-0.0052476738 2.3432128e-05 -5.2004717e-27)
(-0.006260505 2.3358744e-05 -3.3683962e-26)
(-0.0072575842 2.2903504e-05 -1.3721695e-25)
(-0.0082224126 2.2107786e-05 1.8382258e-25)
(-0.0091409396 2.1029067e-05 -4.31522e-27)
(-0.010002013 1.9724729e-05 -6.2086609e-26)
(-0.010796908 1.8231775e-05 -2.5511034e-25)
(-0.011517971 1.6544829e-05 2.9786903e-25)
(-0.012156267 1.4597683e-05 -1.2046397e-24)
(-0.012698748 1.2266136e-05 2.8688893e-24)
(-0.01312614 9.3817709e-06 -1.7381001e-24)
(-0.013410928 5.7434088e-06 2.9741324e-25)
(-0.013516567 1.1191551e-06 -3.8278012e-24)
(-0.013395199 -4.7992246e-06 2.9276813e-24)
(-0.012983993 -1.2364929e-05 -2.5058191e-24)
(-0.012205961 -2.1938852e-05 1.3139901e-25)
(-0.010968744 -3.3912022e-05 1.0498214e-24)
(-0.0091626338 -4.7825348e-05 2.1422608e-24)
(-0.0067457366 -6.3078235e-05 -3.6689381e-24)
(-0.0036143078 -8.2063084e-05 -4.6411874e-24)
(0.00043202923 -0.00010468024 2.0273225e-24)
(0.0054623076 -0.00012938874 4.1715357e-24)
(0.011588023 -0.00015653276 -3.2203932e-24)
(0.01888904 -0.00018413289 -1.5846955e-24)
(0.02730298 -0.00020745275 2.7891863e-24)
(0.036504917 -0.00021780496 -1.4461342e-24)
(0.045707698 -0.00020224499 4.061833e-25)
(0.053527406 -0.00014777527 6.0298619e-25)
(0.058133358 -5.2678001e-05 4.0275935e-25)
(0.058029123 6.6492668e-05 1.804428e-25)
(0.052731256 0.00017558396 -2.5751905e-26)
(0.04344821 0.00023821925 -5.0522255e-26)
(0.032684711 0.0002417209 -1.0457722e-25)
(0.022839094 0.00020290893 8.8228435e-27)
(0.015170595 0.000150806 -1.1708709e-28)
(0.0097094577 0.00010577534 -5.9464782e-26)
(0.0059559095 7.1193784e-05 1.7449572e-25)
(0.003574307 4.0922608e-05 3.3607845e-25)
(0.0025083302 1.1498007e-05 -5.4907064e-25)
(0.0026759145 -1.4011389e-05 -1.1406258e-24)
(0.0037689724 -3.1885626e-05 3.2689862e-25)
(0.0054237975 -4.1893525e-05 6.3071212e-25)
(0.0073425547 -4.6258343e-05 2.8602901e-24)
(0.009357758 -4.7608787e-05 -1.8448831e-24)
(0.011386771 -4.7187308e-05 1.0849612e-24)
(0.013361574 -4.516045e-05 -2.2133111e-24)
(0.015212618 -4.1375536e-05 -5.6016141e-24)
(0.016858177 -3.5894697e-05 1.173631e-24)
(0.018238563 -2.9679984e-05 9.7252372e-24)
(0.019348894 -2.3733957e-05 -2.3101931e-24)
(0.020210711 -1.8520437e-05 1.4382161e-24)
(0.020855733 -1.3899736e-05 -5.1776185e-24)
(0.021288568 -8.8671603e-06 -1.185401e-24)
(0.021459314 -2.2991131e-06 6.1485885e-25)
(0.021282851 6.4344741e-06 3.1179571e-24)
(0.020662683 1.7193061e-05 -1.276245e-24)
(0.019533698 2.8973242e-05 -1.1222864e-24)
(0.017889806 4.022337e-05 7.5371338e-25)
(0.015801794 4.9347086e-05 3.8246448e-24)
(0.01339734 5.5337873e-05 -6.3071323e-24)
(0.010828312 5.8167866e-05 -1.1013492e-23)
(0.0082180434 5.8510634e-05 3.2964229e-23)
(0.005653341 5.7473817e-05 -3.7046863e-23)
(0.0031617163 5.6171653e-05 1.184571e-23)
(0.00073339824 5.5373414e-05 1.3295674e-23)
(-0.001669243 5.5634879e-05 -1.1482606e-23)
(-0.0041037226 5.7261605e-05 6.5261734e-24)
(-0.0066339316 6.0302211e-05 2.9418552e-23)
(-0.0093210737 6.4656223e-05 -1.3298673e-23)
(-0.012220829 7.0160244e-05 -3.9707785e-23)
(-0.015380029 7.6587015e-05 -1.7925454e-23)
(-0.018833642 8.3676062e-05 2.0894355e-23)
(-0.022603691 9.1161438e-05 6.725944e-23)
(-0.026698897 9.8721729e-05 -1.7460987e-23)
(-0.031109723 0.00010599937 2.3820668e-23)
(-0.035810354 0.00011252215 -8.8467014e-23)
(-0.040744932 0.00011784878 -1.7826596e-23)
(-0.045846997 0.00012075862 2.3940568e-23)
(-0.050940447 0.0001202819 2.6368357e-23)
(-0.055884437 0.00010897414 1.9870838e-23)
(-0.059785665 8.0521099e-05 -1.6023386e-23)
(-0.062127399 -3.6210616e-05 1.4081878e-23)
(-0.055566983 -0.00056777766 -4.8466797e-21)
(-0.045104149 -0.0026372685 -3.2104659e-20)
(-0.040353361 -0.0045308345 -2.5059135e-19)
(-0.036585912 -0.0060851857 1.323017e-19)
(-0.034114883 -0.0074981288 -5.4255705e-20)
(-0.03244958 -0.0088396276 -3.64992e-19)
(-0.031345657 -0.010152734 -5.5041079e-20)
(-0.030648364 -0.011486598 4.2880076e-19)
(-0.03034591 -0.012882669 4.9794153e-20)
(-0.030303598 -0.01433862 -2.1963327e-19)
(-0.030478897 -0.015864084 -8.8204655e-20)
(-0.030920889 -0.017511124 -1.151999e-19)
(-0.031893852 -0.019422635 -3.5891266e-19)
(-0.033280541 -0.021504315 -2.6868425e-19)
(-0.034760096 -0.02356672 2.0291071e-20)
(-0.03621345 -0.025525623 2.339835e-19)
(-0.037552267 -0.027299286 5.135156e-20)
(-0.038712982 -0.028821027 -6.5551493e-20)
(-0.039652199 -0.030036052 1.1802936e-21)
(-0.040339307 -0.030904398 -2.9031943e-20)
(-0.040607402 -0.031295114 8.8595766e-20)
(-0.040210544 -0.031107009 -3.655714e-20)
(-0.039070273 -0.030370239 -6.8297973e-20)
(-0.037357462 -0.029268881 9.6355451e-19)
(-0.035290167 -0.027894428 1.082996e-19)
(-0.032863338 -0.026246609 4.5783802e-20)
(-0.030145133 -0.024366151 1.4948036e-18)
(-0.027180945 -0.0222704 -6.8934332e-19)
(-0.023987364 -0.019950781 9.5710471e-20)
(-0.020573758 -0.017397426 -3.4693077e-19)
(-0.016990005 -0.014603809 1.0189382e-18)
(-0.013129183 -0.01137784 2.0775471e-18)
(-0.0088289608 -0.0076614559 -1.199211e-18)
(-0.0026107821 -0.0023482528 -1.7492538e-18)
(0.0051448584 0.0039934356 -3.1592675e-19)
(0.014171274 0.010764694 -2.7284757e-18)
(0.025320041 0.018096601 1.5342414e-18)
(0.039521164 0.025789397 2.2811938e-18)
(0.056763448 0.03250863 5.3997294e-19)
(0.075794627 0.035957002 -2.1952917e-19)
(0.089803096 0.032197849 4.4685477e-20)
(0.091102487 0.022521514 -4.0644338e-20)
(0.081231149 0.012511343 -2.5040676e-19)
(0.066356902 0.0054525531 6.4024289e-20)
(0.049220924 0.0015635619 -1.9739518e-20)
(0.039408288 0.00017040623 -1.2856221e-22)
(0.024188849 -9.0918943e-05 -6.4108336e-21)
(0.050321348 0.00022198415 -7.5113603e-21)
(0.038810454 3.0037204e-05 -3.1544285e-22)
(0.047949463 -0.0012932877 -7.1421569e-21)
(0.036975101 -0.0025996259 3.1551378e-20)
(0.022736089 -0.003048205 -8.2861466e-22)
(0.0032234567 -0.00039149608 -2.5422095e-20)
(-0.01143916 0.0043163094 3.6586737e-21)
(-0.014556703 0.0069532045 1.76377e-20)
(-0.01182331 0.0067669719 -1.8702533e-20)
(-0.0094072478 0.0061536739 -2.2399124e-20)
(-0.0080102333 0.005770901 -1.2268829e-19)
(-0.0071564042 0.0055179266 1.5916061e-19)
(-0.0064203273 0.00519034 -6.7979426e-20)
(-0.0057581367 0.0048041604 2.9094213e-20)
(-0.005131846 0.0043594055 -2.6056525e-20)
(-0.0044571053 0.0038080296 -2.5844848e-19)
(-0.0039044182 0.0033181918 -2.474597e-20)
(-0.0034874515 0.0029207669 4.7643661e-20)
(-0.0031275689 0.0025782379 -5.4835694e-21)
(-0.0027925361 0.0022680219 -2.4070959e-19)
(-0.0024543269 0.0019651487 1.2319184e-19)
(-0.0020808803 0.0016435044 3.5790231e-20)
(-0.0016730759 0.0013033678 -2.3339621e-19)
(-0.001191668 0.00091250174 1.1082892e-19)
(-0.00061272396 0.00045273341 -1.8004431e-19)
(6.6248668e-05 -7.7763183e-05 -2.371743e-19)
(0.00080685018 -0.00064973764 -5.9504245e-20)
(0.0015531698 -0.0012184678 8.8208759e-20)
(0.0022953963 -0.001766867 7.9359652e-20)
(0.0029783121 -0.0022431812 1.9470029e-19)
(0.0035576878 -0.0026082473 2.5185582e-20)
(0.0039851019 -0.0028250525 8.5262302e-20)
(0.0042221026 -0.0028714371 1.8985423e-19)
(0.0042485848 -0.0027462546 3.8576576e-19)
(0.0040728664 -0.0024737185 1.3032816e-19)
(0.0037275576 -0.0020985703 5.932206e-20)
(0.003259239 -0.0016780114 -1.1611865e-19)
(0.0027062626 -0.0012591325 -1.602692e-19)
(0.0021143672 -0.00087583214 -3.1293694e-20)
(0.0015345158 -0.00055448537 -1.4035855e-19)
(0.00099811 -0.0003048784 9.5173064e-20)
(0.00051969113 -0.00012562371 1.1291446e-19)
(0.00010930959 -1.1170068e-05 1.1013793e-20)
(-0.00022804657 4.7374506e-05 3.8334295e-20)
(-0.00048677914 5.9757337e-05 -3.7402411e-20)
(-0.00062586875 3.5970256e-05 3.2064583e-20)
(-0.0006280417 1.4708877e-06 -1.8690755e-22)
(-0.00050985481 -5.9584818e-06 -1.4373959e-24)
(-0.00031430641 -8.2423729e-06 1.5059276e-24)
(-6.0737377e-05 -1.0680731e-05 -1.4079459e-24)
(0.00027675661 -1.305299e-05 -1.3563669e-24)
(0.00067043334 -1.475704e-05 2.5753587e-24)
(0.0011080442 -1.5645924e-05 8.2924325e-24)
(0.0015551713 -1.5524624e-05 -1.0777053e-23)
(0.0019869989 -1.4462164e-05 7.7260782e-24)
(0.0023738414 -1.2502167e-05 -9.6946779e-24)
(0.0026928828 -9.7863371e-06 2.2862375e-24)
(0.0029228768 -6.4302734e-06 1.2315803e-24)
(0.0030474907 -2.5519106e-06 3.9547205e-24)
(0.0030524159 1.7787442e-06 -5.3120019e-24)
(0.0029255029 6.5046202e-06 4.8548386e-24)
(0.0026558654 1.1567239e-05 -3.7975887e-25)
(0.0022346189 1.6883964e-05 3.2634071e-25)
(0.0016554844 2.2334253e-05 -2.7697838e-24)
(0.00091645358 2.7724792e-05 -1.2386731e-24)
(2.2611472e-05 3.2799063e-05 2.2358944e-24)