/*--------------------------------*- C++ -*----------------------------------*\
| =========                 |                                                 |
| \\      /  F ield         | OpenFOAM: The Open Source CFD Toolbox           |
|  \\    /   O peration     | Version:  2.4.0                                 |
|   \\  /    A nd           | Web:      www.OpenFOAM.org                      |
|    \\/     M anipulation  |                                                 |
\*---------------------------------------------------------------------------*/
FoamFile
{
    version     2.0;
    format      ascii;
    class       volScalarField;
    location    "5000";
    object      nut;
}
// * * * * * * * * * * * * * * * * * * * * * * * * * * * * * * * * * * * * * //

dimensions      [0 2 -1 0 0 0 0];

internalField   nonuniform List<scalar> 
78300
(
4.5889633e-12
2.2286106e-12
6.3502073e-12
3.7974679e-12
4.5977164e-12
1.7633351e-12
6.9811855e-13
2.0170515e-14
3.0484928e-13
5.8014778e-13
3.8262941e-13
2.7164805e-13
1.5470311e-13
1.0883523e-13
8.0807104e-14
6.8153417e-14
5.7234787e-14
5.1822128e-14
4.5919234e-14
4.1674378e-14
3.7236154e-14
3.3736332e-14
3.0687591e-14
2.8847819e-14
2.7868573e-14
2.7471705e-14
2.776665e-14
2.8732677e-14
3.0455304e-14
3.3099574e-14
3.6754771e-14
4.1693636e-14
4.8049201e-14
5.6096515e-14
6.590926e-14
7.7360189e-14
8.9608847e-14
1.0263342e-13
1.166828e-13
1.3146283e-13
1.46917e-13
1.6258366e-13
1.780787e-13
1.927511e-13
2.0613217e-13
2.1743519e-13
2.2657197e-13
2.3306343e-13
2.391981e-13
2.4511179e-13
2.4910846e-13
2.5033692e-13
2.489592e-13
2.4324315e-13
2.3532206e-13
2.2170965e-13
2.0833575e-13
1.8827909e-13
1.7488905e-13
1.5392893e-13
1.5382221e-13
1.4526258e-13
2.1017135e-13
3.7467839e-13
5.1766223e-13
6.8001297e-13
8.318714e-13
9.9167363e-13
1.1414579e-12
1.2927287e-12
1.4357557e-12
1.5773609e-12
1.7124238e-12
1.8448973e-12
1.9720997e-12
2.0962844e-12
2.2160287e-12
2.3325863e-12
2.4451739e-12
2.5544565e-12
2.6599642e-12
2.7620246e-12
2.8603193e-12
2.9549606e-12
3.0457229e-12
3.1326e-12
3.2154045e-12
3.2940557e-12
3.3684107e-12
3.4383483e-12
3.5037322e-12
3.5644668e-12
3.6204474e-12
3.6716138e-12
3.7178784e-12
3.7592155e-12
3.7955754e-12
3.826914e-12
3.8532647e-12
3.8745957e-12
3.8909639e-12
3.9024007e-12
3.9089562e-12
3.9106421e-12
3.9074845e-12
3.8995669e-12
3.8869848e-12
3.8698494e-12
3.8482822e-12
3.8224176e-12
3.7923995e-12
3.7583833e-12
3.72053e-12
3.6790098e-12
3.6340001e-12
3.5856841e-12
3.5342483e-12
3.4798839e-12
3.4227863e-12
3.3631505e-12
3.3011741e-12
3.2370608e-12
3.1710129e-12
3.1032315e-12
3.0339157e-12
2.9632606e-12
2.8914595e-12
2.8186997e-12
2.7451636e-12
2.6710282e-12
2.5964646e-12
2.521632e-12
2.4466849e-12
2.3717857e-12
2.2970537e-12
2.2226604e-12
2.148761e-12
2.0754662e-12
2.0028515e-12
1.9310621e-12
1.8601898e-12
1.7903301e-12
1.7215717e-12
1.6539906e-12
1.5876575e-12
1.52264e-12
1.4589943e-12
1.3967715e-12
1.3360176e-12
1.2767693e-12
1.2190627e-12
1.1629249e-12
1.1083822e-12
1.0554473e-12
1.0041359e-12
9.5445713e-13
9.0641514e-13
8.6001016e-13
8.1523542e-13
7.7208509e-13
7.3054563e-13
6.9060407e-13
6.5224139e-13
6.1543894e-13
5.8017107e-13
5.4641699e-13
5.1414487e-13
4.8332981e-13
4.539361e-13
4.2593909e-13
3.9929565e-13
3.7398344e-13
3.4995168e-13
3.2718248e-13
3.0561752e-13
2.8524381e-13
2.6599592e-13
2.4786828e-13
2.3078368e-13
2.1475028e-13
1.9967661e-13
1.8558874e-13
1.7237298e-13
1.6008345e-13
1.4857616e-13
1.3794153e-13
1.2799959e-13
1.1888489e-13
1.1036791e-13
1.0264726e-13
9.5424057e-14
8.8984449e-14
8.2934841e-14
7.7678476e-14
7.2696337e-14
6.8550802e-14
6.4549299e-14
6.1475527e-14
5.8397984e-14
5.6414635e-14
5.4254209e-14
5.3465286e-14
5.2309592e-14
5.2995357e-14
5.3092108e-14
5.5734519e-14
5.7150439e-14
6.2006404e-14
6.6879495e-14
6.9328513e-14
7.242289e-14
7.1814322e-14
7.1387926e-14
6.7928847e-14
6.4299249e-14
5.8595967e-14
5.2669294e-14
4.5594844e-14
3.8505874e-14
3.1173584e-14
2.4327112e-14
1.8094344e-14
1.290556e-14
1.5317271e-14
2.3380757e-14
3.588063e-14
5.4023461e-14
7.9390454e-14
1.1298176e-13
1.5627884e-13
2.0980046e-13
2.7475474e-13
3.5070169e-13
4.3803616e-13
5.3271356e-13
6.2915096e-13
7.285135e-13
8.3204431e-13
9.4011812e-13
1.054327e-12
1.1751068e-12
1.3050995e-12
1.4451577e-12
1.600632e-12
1.772307e-12
1.9722631e-12
2.2063682e-12
2.5129916e-12
2.9412404e-12
3.472742e-12
4.1469553e-12
4.9778046e-12
6.0536899e-12
7.4078762e-12
9.2272147e-12
1.1570586e-11
1.4847881e-11
1.8948399e-11
2.4585724e-11
3.0774233e-11
3.7446678e-11
3.8101934e-11
3.3837374e-11
2.5173838e-11
1.8362074e-11
1.0412975e-11
7.5926869e-12
3.1499633e-12
3.8733784e-12
1.0416837e-12
9.5031404e-12
8.1579727e-12
1.1640602e-11
8.8585845e-12
8.5361692e-12
4.7750236e-12
2.4997199e-12
8.6697695e-13
5.3681801e-13
6.162963e-13
3.8364836e-13
2.6973589e-13
1.550355e-13
1.1012817e-13
8.2853758e-14
7.0393925e-14
5.9848857e-14
5.4615201e-14
4.9055842e-14
4.5094943e-14
4.1015191e-14
3.7863655e-14
3.5212746e-14
3.3818601e-14
3.3388546e-14
3.3631055e-14
3.4663182e-14
3.6494148e-14
3.9233421e-14
4.3077929e-14
4.8158078e-14
5.4796202e-14
6.3181683e-14
7.3652566e-14
8.6355515e-14
1.0122558e-13
1.1747768e-13
1.3514049e-13
1.5464844e-13
1.7590931e-13
1.9911175e-13
2.2387359e-13
2.4968604e-13
2.7595114e-13
3.0237111e-13
3.2822084e-13
3.5274802e-13
3.7053062e-13
3.7438835e-13
3.9848542e-13
4.2528024e-13
4.5114325e-13
4.7581325e-13
4.9706724e-13
5.160182e-13
5.2840539e-13
5.3839303e-13
5.3822011e-13
5.3912974e-13
5.2744313e-13
5.3142569e-13
5.2813177e-13
6.0882249e-13
8.5591259e-13
1.0929136e-12
1.3337031e-12
1.5695054e-12
1.8060694e-12
2.037228e-12
2.2650718e-12
2.4878005e-12
2.7065207e-12
2.9206031e-12
3.1310217e-12
3.3373559e-12
3.5404379e-12
3.7399033e-12
3.9363442e-12
4.1294601e-12
4.3195647e-12
4.506415e-12
4.6901196e-12
4.8704346e-12
5.0473348e-12
5.2205796e-12
5.3900428e-12
5.555489e-12
5.7167282e-12
5.8735394e-12
6.0256793e-12
6.1729508e-12
6.3151277e-12
6.4520145e-12
6.5834246e-12
6.7092007e-12
6.8292473e-12
6.9433666e-12
7.0513932e-12
7.1533209e-12
7.2489784e-12
7.3383983e-12
7.4214744e-12
7.498204e-12
7.5684829e-12
7.6322842e-12
7.6895971e-12
7.7404568e-12
7.7849044e-12
7.8229988e-12
7.8548208e-12
7.8804593e-12
7.9000253e-12
7.913638e-12
7.92143e-12
7.9235477e-12
7.9201469e-12
7.9113884e-12
7.8974375e-12
7.8784749e-12
7.8546837e-12
7.8262625e-12
7.7934163e-12
7.7563558e-12
7.7152932e-12
7.6704461e-12
7.6220266e-12
7.5702538e-12
7.5153401e-12
7.4575114e-12
7.397036e-12
7.3338758e-12
7.2684548e-12
7.2009085e-12
7.1312366e-12
7.0594942e-12
6.9861575e-12
6.9120646e-12
6.8371454e-12
6.7603464e-12
6.6829929e-12
6.6048033e-12
6.5260354e-12
6.4468149e-12
6.3672509e-12
6.2874688e-12
6.2075893e-12
6.1277036e-12
6.047917e-12
5.9683087e-12
5.8889633e-12
5.8099589e-12
5.7313708e-12
5.6532824e-12
5.5756897e-12
5.4986913e-12
5.422331e-12
5.3466672e-12
5.2717215e-12
5.1975318e-12
5.1241155e-12
5.0514869e-12
4.9796867e-12
4.9087152e-12
4.838567e-12
4.7692648e-12
4.7007857e-12
4.633134e-12
4.5663057e-12
4.5002763e-12
4.4350345e-12
4.37055e-12
4.3068157e-12
4.2437894e-12
4.1814501e-12
4.1197311e-12
4.0586379e-12
3.998099e-12
3.9380769e-12
3.8784911e-12
3.8193442e-12
3.7604957e-12
3.7019791e-12
3.6436039e-12
3.5854359e-12
3.5272024e-12
3.4690333e-12
3.4105737e-12
3.3520246e-12
3.2928892e-12
3.2334839e-12
3.1731278e-12
3.11231e-12
3.0500877e-12
2.9871804e-12
2.9223002e-12
2.8565056e-12
2.7880205e-12
2.7183966e-12
2.6451965e-12
2.5706488e-12
2.4914501e-12
2.410677e-12
2.3240378e-12
2.235855e-12
2.1409451e-12
2.043965e-12
1.9300686e-12
1.8253237e-12
1.8166621e-12
1.8417466e-12
1.884929e-12
1.9293832e-12
1.9745013e-12
2.0157093e-12
2.0529506e-12
2.0851818e-12
2.1126455e-12
2.1353154e-12
2.1530264e-12
2.1662599e-12
2.1755912e-12
2.1830051e-12
2.1947208e-12
2.2184129e-12
2.2500904e-12
2.2875663e-12
2.3312106e-12
2.3818758e-12
2.4401779e-12
2.5069369e-12
2.5821955e-12
2.6664776e-12
2.7592485e-12
2.8599712e-12
2.9511174e-12
3.0288791e-12
3.1008104e-12
3.1708835e-12
3.2415169e-12
3.3156249e-12
3.3950184e-12
3.4827945e-12
3.5814197e-12
3.6966113e-12
3.8299009e-12
3.9972995e-12
4.2016823e-12
4.5032665e-12
4.965413e-12
5.5518393e-12
6.7269452e-12
7.8632219e-12
9.1907454e-12
1.0861219e-11
1.309643e-11
1.599543e-11
1.9980638e-11
2.4998519e-11
3.1714334e-11
3.9088924e-11
4.658257e-11
4.7922652e-11
4.3496213e-11
3.4539973e-11
2.6473269e-11
1.641721e-11
1.2522973e-11
8.3240165e-12
8.2266641e-12
6.0899546e-12
1.2546255e-10
1.3925904e-10
1.4021834e-10
1.2579255e-10
1.0389313e-10
7.3018372e-11
4.2393918e-11
1.8826027e-11
6.2832213e-12
2.0563263e-12
8.5697663e-13
5.5005222e-13
3.4148703e-13
2.6419423e-13
2.1976963e-13
1.967369e-13
1.8088554e-13
1.7297477e-13
1.6725785e-13
1.6397028e-13
1.6178957e-13
1.6150949e-13
1.6328417e-13
1.6876348e-13
1.7829565e-13
1.9101446e-13
2.0733627e-13
2.2784633e-13
2.5325118e-13
2.8458961e-13
3.2293291e-13
3.6993499e-13
4.2708124e-13
4.9630889e-13
5.7930355e-13
6.7705491e-13
7.8889478e-13
9.159036e-13
1.0625304e-12
1.2323892e-12
1.4305741e-12
1.6578069e-12
1.9106842e-12
2.1890925e-12
2.4962735e-12
2.8342683e-12
3.200014e-12
3.5562933e-12
3.8307202e-12
4.2887115e-12
4.8072738e-12
5.3564346e-12
5.9273534e-12
6.5029063e-12
7.0683208e-12
7.5937542e-12
8.0618009e-12
8.4285841e-12
8.6962646e-12
8.8250009e-12
8.9153013e-12
9.0002382e-12
9.5854463e-12
1.2012784e-11
1.4614482e-11
1.6943076e-11
1.9355124e-11
2.1637435e-11
2.3985123e-11
2.6232062e-11
2.8518039e-11
3.0741592e-11
3.2983326e-11
3.5191808e-11
3.7407241e-11
3.9606434e-11
4.1807591e-11
4.4000664e-11
4.6193466e-11
4.8380663e-11
5.0565551e-11
5.2744489e-11
5.4917961e-11
5.7083335e-11
5.9239457e-11
6.1383649e-11
6.3514166e-11
6.5628295e-11
6.7723784e-11
6.979749e-11
7.1847577e-11
7.3870801e-11
7.5864772e-11
7.7826475e-11
7.9754048e-11
8.1645856e-11
8.3498436e-11
8.5308946e-11
8.7076636e-11
8.8798318e-11
9.0473647e-11
9.2099692e-11
9.3675474e-11
9.5198459e-11
9.6667574e-11
9.8081049e-11
9.9437903e-11
1.0073699e-10
1.0197737e-10
1.0315835e-10
1.0427924e-10
1.0533963e-10
1.0633918e-10
1.0727769e-10
1.0815512e-10
1.0897152e-10
1.0972702e-10
1.1042176e-10
1.1105609e-10
1.116305e-10
1.1214571e-10
1.126025e-10
1.1300181e-10
1.1334459e-10
1.1363201e-10
1.1386515e-10
1.1404528e-10
1.1417365e-10
1.1425188e-10
1.1428265e-10
1.1426194e-10
1.1419621e-10
1.1408559e-10
1.1392708e-10
1.137197e-10
1.1347081e-10
1.1319607e-10
1.1289192e-10
1.1253365e-10
1.1214788e-10
1.117267e-10
1.1127404e-10
1.1079104e-10
1.1027873e-10
1.0973856e-10
1.0917196e-10
1.085799e-10
1.0796379e-10
1.0732449e-10
1.0666324e-10
1.0598107e-10
1.0527915e-10
1.0455886e-10
1.0381984e-10
1.0306402e-10
1.0229217e-10
1.0150552e-10
1.0070454e-10
9.9890192e-11
9.906297e-11
9.8223443e-11
9.7372739e-11
9.6511236e-11
9.5639137e-11
9.4757431e-11
9.3865991e-11
9.2965499e-11
9.2056331e-11
9.1138593e-11
9.0212504e-11
8.9278182e-11
8.8335884e-11
8.7385613e-11
8.6427238e-11
8.546036e-11
8.4485333e-11
8.350179e-11
8.2509009e-11
8.1506626e-11
8.0494557e-11
7.947137e-11
7.8437339e-11
7.7390341e-11
7.6330837e-11
7.5255453e-11
7.4165393e-11
7.3056125e-11
7.1929621e-11
7.0779125e-11
6.9607971e-11
6.8406612e-11
6.7180597e-11
6.5916323e-11
6.4622277e-11
6.3279541e-11
6.1901163e-11
6.0460626e-11
5.8977802e-11
5.7415963e-11
5.5804148e-11
5.4092743e-11
5.232123e-11
5.0426728e-11
4.8464098e-11
4.6363536e-11
4.4170253e-11
4.1626911e-11
3.9225038e-11
3.8946616e-11
3.945669e-11
4.0355438e-11
4.1350766e-11
4.2357528e-11
4.33338e-11
4.4225445e-11
4.504448e-11
4.5762196e-11
4.6395021e-11
4.6918346e-11
4.7347092e-11
4.7680618e-11
4.7960696e-11
4.8316193e-11
4.8795627e-11
4.9347065e-11
4.9944645e-11
5.0573822e-11
5.1224846e-11
5.1892767e-11
5.2568301e-11
5.3242835e-11
5.3905993e-11
5.4553943e-11
5.5166145e-11
5.5431188e-11
5.5369639e-11
5.5126058e-11
5.4764805e-11
5.433192e-11
5.3862935e-11
5.3389698e-11
5.2931907e-11
5.25281e-11
5.2205817e-11
5.1984808e-11
5.1995235e-11
5.2192456e-11
5.3198611e-11
5.5508529e-11
5.8666934e-11
6.5880201e-11
7.2417437e-11
7.9814585e-11
8.9401945e-11
1.0215646e-10
1.1902459e-10
1.4117102e-10
1.695521e-10
2.0474243e-10
2.4345832e-10
2.7570476e-10
2.9193696e-10
2.7926429e-10
2.5410583e-10
2.1281568e-10
1.7083794e-10
1.3677352e-10
1.2591794e-10
1.1042824e-10
1.1544017e-10
9.952162e-10
1.1208094e-09
1.10519e-09
1.0022e-09
8.1950224e-10
5.8440347e-10
3.4134677e-10
1.5340469e-10
4.9623138e-11
1.3010422e-11
4.5653321e-12
2.7672671e-12
1.7992665e-12
1.4568396e-12
1.2699972e-12
1.1619954e-12
1.1006746e-12
1.0699007e-12
1.0594242e-12
1.0584992e-12
1.0675043e-12
1.0860937e-12
1.1183296e-12
1.1728395e-12
1.2544742e-12
1.3580384e-12
1.4861781e-12
1.6436675e-12
1.8356258e-12
2.0693382e-12
2.3527945e-12
2.6975384e-12
3.1146043e-12
3.6177771e-12
4.2200467e-12
4.9300961e-12
5.7476826e-12
6.6814782e-12
7.765307e-12
9.0297027e-12
1.051572e-11
1.2232152e-11
1.4154332e-11
1.6285342e-11
1.8654656e-11
2.1286822e-11
2.4174743e-11
2.7130298e-11
2.9774082e-11
3.3522105e-11
3.772138e-11
4.2186098e-11
4.6843235e-11
5.1563225e-11
5.6213698e-11
6.0571249e-11
6.4460522e-11
6.7562984e-11
6.9820409e-11
7.0988259e-11
7.1724438e-11
7.2463892e-11
7.6856566e-11
9.5682123e-11
1.1604503e-10
1.3407998e-10
1.5285425e-10
1.7052719e-10
1.8878917e-10
2.0622234e-10
2.2402003e-10
2.4131741e-10
2.5879983e-10
2.7602607e-10
2.9333868e-10
3.1053605e-10
3.2777448e-10
3.4496506e-10
3.6217582e-10
3.7935959e-10
3.9654586e-10
4.1370315e-10
4.3083721e-10
4.4792598e-10
4.6496135e-10
4.8192156e-10
4.987935e-10
5.1555554e-10
5.3219015e-10
5.4867247e-10
5.649883e-10
5.8111182e-10
5.9702416e-10
6.1270113e-10
6.2812809e-10
6.4329185e-10
6.5816464e-10
6.727232e-10
6.8696172e-10
7.0085431e-10
7.1439777e-10
7.27568e-10
7.4035684e-10
7.5274349e-10
7.6471913e-10
7.7626892e-10
7.8738434e-10
7.9805541e-10
8.0827387e-10
8.1803323e-10
8.2732713e-10
8.3615128e-10
8.4450207e-10
8.5237686e-10
8.5977433e-10
8.6669384e-10
8.7313537e-10
8.7909893e-10
8.8458644e-10
8.8960061e-10
8.941462e-10
8.9822847e-10
9.0185385e-10
9.0502907e-10
9.0776228e-10
9.100613e-10
9.119354e-10
9.1339351e-10
9.1444803e-10
9.1511963e-10
9.1537466e-10
9.1526464e-10
9.1479e-10
9.1392527e-10
9.1266181e-10
9.1105836e-10
9.0924172e-10
9.0718233e-10
9.0467858e-10
9.0194616e-10
8.9892033e-10
8.9563251e-10
8.9209146e-10
8.8830506e-10
8.8428483e-10
8.8004192e-10
8.7558405e-10
8.7092216e-10
8.6606331e-10
8.6101708e-10
8.5579188e-10
8.5039695e-10
8.4484336e-10
8.3912824e-10
8.3326699e-10
8.2726613e-10
8.2113537e-10
8.1487868e-10
8.0850387e-10
8.0201506e-10
7.954169e-10
7.8871869e-10
7.8192355e-10
7.7503332e-10
7.6805614e-10
7.6099113e-10
7.5384403e-10
7.4661794e-10
7.3931409e-10
7.319343e-10
7.2447977e-10
7.1695277e-10
7.0935361e-10
7.0168127e-10
6.939329e-10
6.8611144e-10
6.7821428e-10
6.7023552e-10
6.6217272e-10
6.5402508e-10
6.4578154e-10
6.3744413e-10
6.2899621e-10
6.2044127e-10
6.1175262e-10
6.0293959e-10
5.939663e-10
5.8484804e-10
5.755311e-10
5.6604151e-10
5.5630329e-10
5.4635996e-10
5.36103e-10
5.2559927e-10
5.1469763e-10
5.0350124e-10
4.9179802e-10
4.7974544e-10
4.6704965e-10
4.5394099e-10
4.4002255e-10
4.2560721e-10
4.1019247e-10
3.9421267e-10
3.7711295e-10
3.5924449e-10
3.385465e-10
3.1900568e-10
3.167413e-10
3.2088502e-10
3.2819198e-10
3.363073e-10
3.4451559e-10
3.5249312e-10
3.597821e-10
3.6649232e-10
3.723784e-10
3.7757952e-10
3.8188849e-10
3.8542838e-10
3.8819116e-10
3.9051806e-10
3.9345294e-10
3.9734733e-10
4.0179218e-10
4.0658687e-10
4.116039e-10
4.1675687e-10
4.2199988e-10
4.2724758e-10
4.3242708e-10
4.3744911e-10
4.4228321e-10
4.4675142e-10
4.4834947e-10
4.4729076e-10
4.4474071e-10
4.4121257e-10
4.3707974e-10
4.3261975e-10
4.2808882e-10
4.2363285e-10
4.1956058e-10
4.1606634e-10
4.1331084e-10
4.1228152e-10
4.1259299e-10
4.1909676e-10
4.3551269e-10
4.5824122e-10
5.0363332e-10
5.4807165e-10
6.0018894e-10
6.6842412e-10
7.5916759e-10
8.7954674e-10
1.0363488e-09
1.2377795e-09
1.4840621e-09
1.7547668e-09
1.9709463e-09
2.0956071e-09
2.0200156e-09
1.871828e-09
1.5846326e-09
1.3306767e-09
1.0697877e-09
1.0068755e-09
8.7679314e-10
9.3377095e-10
4.7783895e-09
5.3896734e-09
5.301578e-09
4.8131768e-09
3.9318197e-09
2.8092313e-09
1.6429631e-09
7.4016187e-10
2.3911701e-10
6.0542787e-11
2.0665284e-11
1.2376309e-11
8.1075399e-12
6.6094759e-12
5.8029272e-12
5.326264e-12
5.066646e-12
4.9361719e-12
4.9038421e-12
4.9121676e-12
4.9682545e-12
5.067116e-12
5.2292937e-12
5.4934803e-12
5.8840075e-12
6.3771719e-12
6.9850924e-12
7.7304959e-12
8.6374488e-12
9.7400582e-12
1.1076002e-11
1.269933e-11
1.4662086e-11
1.7028976e-11
1.9861672e-11
2.320216e-11
2.7052302e-11
3.1452785e-11
3.6563295e-11
4.2529928e-11
4.9548745e-11
5.7664373e-11
6.6761103e-11
7.6855375e-11
8.8090667e-11
1.0059492e-10
1.143752e-10
1.2879392e-10
1.4257382e-10
1.607398e-10
1.8095687e-10
2.0246339e-10
2.2490693e-10
2.4766814e-10
2.7010355e-10
2.911459e-10
3.099333e-10
3.2494835e-10
3.3587152e-10
3.4156137e-10
3.4510855e-10
3.4869199e-10
3.6964095e-10
4.5983488e-10
5.574537e-10
6.4383552e-10
7.3380982e-10
8.1845427e-10
9.0596426e-10
9.8947583e-10
1.0747662e-09
1.1576492e-09
1.2414413e-09
1.3240055e-09
1.4069999e-09
1.4894468e-09
1.5721032e-09
1.6545371e-09
1.7370788e-09
1.819499e-09
1.9019413e-09
1.9842532e-09
2.0664635e-09
2.1484655e-09
2.2302211e-09
2.3116256e-09
2.3926163e-09
2.4730897e-09
2.5529616e-09
2.6321132e-09
2.7104761e-09
2.7879267e-09
2.8643744e-09
2.939703e-09
3.0138424e-09
3.0867293e-09
3.1582304e-09
3.2282325e-09
3.2967101e-09
3.3635378e-09
3.428699e-09
3.4920783e-09
3.5536364e-09
3.613273e-09
3.670946e-09
3.7265834e-09
3.7801439e-09
3.8315793e-09
3.8808493e-09
3.9279224e-09
3.9727675e-09
4.0153634e-09
4.0556922e-09
4.0937409e-09
4.1295023e-09
4.1629729e-09
4.194152e-09
4.223039e-09
4.2496423e-09
4.2739748e-09
4.2960584e-09
4.3159179e-09
4.3335834e-09
4.349087e-09
4.362467e-09
4.3737606e-09
4.3830116e-09
4.3902625e-09
4.395572e-09
4.3990401e-09
4.400504e-09
4.4002098e-09
4.3981604e-09
4.3942326e-09
4.388384e-09
4.3808962e-09
4.3723798e-09
4.3626934e-09
4.3508651e-09
4.3379319e-09
4.323583e-09
4.307969e-09
4.2911319e-09
4.2731093e-09
4.2539565e-09
4.2337269e-09
4.2124576e-09
4.1902011e-09
4.1669913e-09
4.1428741e-09
4.1178899e-09
4.0920831e-09
4.0655072e-09
4.0381479e-09
4.0100795e-09
3.9813336e-09
3.9519566e-09
3.921968e-09
3.8914051e-09
3.8602883e-09
3.828639e-09
3.796503e-09
3.7638951e-09
3.7308242e-09
3.6973296e-09
3.6634072e-09
3.6290846e-09
3.5943771e-09
3.5592905e-09
3.5238335e-09
3.4880125e-09
3.4518383e-09
3.4153123e-09
3.3784301e-09
3.3411779e-09
3.3035699e-09
3.2655937e-09
3.2272214e-09
3.1884408e-09
3.1492485e-09
3.1095914e-09
3.0694793e-09
3.0288322e-09
2.9876669e-09
2.9458554e-09
2.9034424e-09
2.8602553e-09
2.8163678e-09
2.7715217e-09
2.7258421e-09
2.6789633e-09
2.6310948e-09
2.5817146e-09
2.5311442e-09
2.4786564e-09
2.4247472e-09
2.3683964e-09
2.3103612e-09
2.2492277e-09
2.1861035e-09
2.1190792e-09
2.0496589e-09
1.9754246e-09
1.8984641e-09
1.8161087e-09
1.7300462e-09
1.6304242e-09
1.5364892e-09
1.525715e-09
1.5456899e-09
1.5809127e-09
1.6200467e-09
1.6596307e-09
1.6981127e-09
1.7332792e-09
1.765664e-09
1.7940789e-09
1.819198e-09
1.8400143e-09
1.8571272e-09
1.8704987e-09
1.8817828e-09
1.8959883e-09
1.9147656e-09
1.9361613e-09
1.959221e-09
1.983322e-09
2.0080566e-09
2.0331929e-09
2.0583122e-09
2.0830629e-09
2.107014e-09
2.1300265e-09
2.1511865e-09
2.1584827e-09
2.1530431e-09
2.1404495e-09
2.1231495e-09
2.1029374e-09
2.0811476e-09
2.0590081e-09
2.0372037e-09
2.0172244e-09
1.9999983e-09
1.9863056e-09
1.9808601e-09
1.9818576e-09
2.0125657e-09
2.0905983e-09
2.1985487e-09
2.392382e-09
2.5947126e-09
2.8383613e-09
3.1586087e-09
3.5845368e-09
4.1495711e-09
4.8844078e-09
5.8279544e-09
6.9781214e-09
8.2399342e-09
9.2393461e-09
9.8240645e-09
9.4781792e-09
8.805096e-09
7.4674996e-09
6.3699367e-09
5.1252795e-09
4.8375062e-09
4.2096656e-09
4.4933989e-09
1.6774729e-08
1.8926791e-08
1.8602048e-08
1.6893363e-08
1.3798379e-08
9.8673494e-09
5.7766541e-09
2.6069763e-09
8.4369098e-10
2.114837e-10
7.1699703e-11
4.2752371e-11
2.8033192e-11
2.2867993e-11
2.0100723e-11
1.8458565e-11
1.7571396e-11
1.7125327e-11
1.702327e-11
1.7060462e-11
1.7264504e-11
1.7615856e-11
1.8186235e-11
1.9108871e-11
2.0470179e-11
2.2188606e-11
2.4305683e-11
2.6900563e-11
3.0056888e-11
3.3893146e-11
3.8540317e-11
4.4186228e-11
5.1012003e-11
5.9242734e-11
6.9093955e-11
8.0712253e-11
9.4108761e-11
1.0942359e-10
1.2721027e-10
1.4797923e-10
1.7241658e-10
2.0068396e-10
2.323797e-10
2.6756055e-10
3.0673162e-10
3.5036031e-10
3.9856014e-10
4.4966485e-10
5.0040031e-10
5.6453952e-10
6.3561624e-10
7.1124175e-10
7.9017662e-10
8.7024645e-10
9.4918555e-10
1.0232446e-09
1.0893804e-09
1.1422608e-09
1.1807329e-09
1.2007944e-09
1.2132649e-09
1.2258605e-09
1.2992502e-09
1.6159975e-09
1.9586388e-09
2.2618795e-09
2.5777688e-09
2.8748881e-09
3.1820949e-09
3.4752289e-09
3.7746254e-09
4.0655508e-09
4.3596775e-09
4.6494844e-09
4.9408059e-09
5.2302011e-09
5.5203342e-09
5.8096852e-09
6.0994165e-09
6.3887219e-09
6.6781074e-09
6.9670365e-09
7.2556127e-09
7.5434608e-09
7.8304483e-09
8.1162079e-09
8.4005211e-09
8.6830242e-09
8.9634231e-09
9.2413015e-09
9.5164199e-09
9.7883447e-09
1.0056759e-08
1.0321256e-08
1.0581589e-08
1.0837538e-08
1.1088633e-08
1.1334476e-08
1.1574982e-08
1.1809716e-08
1.2038608e-08
1.2261258e-08
1.2477529e-08
1.2687069e-08
1.288973e-08
1.3085259e-08
1.3273511e-08
1.3454315e-08
1.362753e-08
1.3793046e-08
1.3950751e-08
1.4100571e-08
1.4242444e-08
1.4376321e-08
1.4502177e-08
1.4619999e-08
1.4729784e-08
1.4831529e-08
1.4925261e-08
1.5011026e-08
1.50889e-08
1.5158968e-08
1.5221335e-08
1.5276114e-08
1.5323437e-08
1.5363434e-08
1.5396257e-08
1.5422057e-08
1.5441035e-08
1.5453546e-08
1.5459021e-08
1.5458308e-08
1.5451432e-08
1.5437953e-08
1.5417722e-08
1.5391724e-08
1.5362107e-08
1.5328378e-08
1.5287118e-08
1.5241967e-08
1.5191835e-08
1.5137251e-08
1.5078362e-08
1.50153e-08
1.4948258e-08
1.4877424e-08
1.4802928e-08
1.4724955e-08
1.4643623e-08
1.4559093e-08
1.4471508e-08
1.4381024e-08
1.4287827e-08
1.4191869e-08
1.4093409e-08
1.399256e-08
1.3889485e-08
1.3784251e-08
1.367699e-08
1.3567775e-08
1.3456679e-08
1.3343865e-08
1.3229385e-08
1.3113269e-08
1.2995657e-08
1.2876534e-08
1.2755998e-08
1.2634101e-08
1.2510866e-08
1.2386322e-08
1.2260493e-08
1.2133416e-08
1.2005097e-08
1.187552e-08
1.1744638e-08
1.16125e-08
1.1479063e-08
1.1344228e-08
1.1207955e-08
1.1070231e-08
1.0930868e-08
1.0789903e-08
1.0647054e-08
1.050238e-08
1.0355432e-08
1.0206367e-08
1.0054578e-08
9.9003247e-09
9.7426998e-09
9.5821429e-09
9.4173692e-09
9.2491156e-09
9.0755461e-09
8.8977924e-09
8.7132968e-09
8.5238052e-09
8.3257285e-09
8.1217315e-09
7.9068409e-09
7.6849542e-09
7.4493536e-09
7.2053319e-09
6.9443824e-09
6.6738469e-09
6.3843357e-09
6.0817982e-09
5.7318218e-09
5.4022623e-09
5.3648816e-09
5.4351754e-09
5.5591234e-09
5.6968607e-09
5.8361865e-09
5.9716521e-09
6.0954632e-09
6.209494e-09
6.3095654e-09
6.3980539e-09
6.471402e-09
6.5317309e-09
6.578916e-09
6.6188097e-09
6.6689467e-09
6.7350519e-09
6.8102854e-09
6.8913274e-09
6.9759819e-09
7.0628229e-09
7.1510224e-09
7.2391041e-09
7.325844e-09
7.4097103e-09
7.4902158e-09
7.5639577e-09
7.5888622e-09
7.5692434e-09
7.5246397e-09
7.4635471e-09
7.39223e-09
7.3154101e-09
7.2373782e-09
7.1605207e-09
7.0901057e-09
7.0293631e-09
6.9810705e-09
6.9617462e-09
6.9653122e-09
7.0734809e-09
7.3474943e-09
7.7253194e-09
8.3555338e-09
9.0446859e-09
9.8891946e-09
1.1001514e-08
1.2480702e-08
1.4441843e-08
1.6989122e-08
2.0255936e-08
2.4228611e-08
2.8574605e-08
3.1996431e-08
3.3999002e-08
3.2807681e-08
3.0510874e-08
2.5905751e-08
2.2309602e-08
1.7964944e-08
1.6977991e-08
1.4774935e-08
1.5785237e-08
4.7832607e-08
5.3977896e-08
5.3012105e-08
4.8153401e-08
3.9333603e-08
2.8154429e-08
1.6502566e-08
7.4622501e-09
2.4210746e-09
6.0438968e-10
2.0424542e-10
1.2141095e-10
7.9591923e-11
6.4896504e-11
5.7049865e-11
5.2389933e-11
4.9877122e-11
4.8613288e-11
4.8330234e-11
4.8442204e-11
4.9028336e-11
5.003151e-11
5.1653514e-11
5.4271197e-11
5.8133215e-11
6.3009947e-11
6.9017702e-11
7.6380977e-11
8.533689e-11
9.6221472e-11
1.09406e-10
1.2542328e-10
1.4478746e-10
1.6813864e-10
1.9608775e-10
2.2905365e-10
2.6707515e-10
3.105527e-10
3.6104223e-10
4.1999764e-10
4.8937567e-10
5.6965125e-10
6.5968547e-10
7.5963374e-10
8.7093873e-10
9.9496907e-10
1.1322216e-09
1.2790407e-09
1.4284407e-09
1.6122407e-09
1.8153319e-09
2.0314541e-09
2.2570665e-09
2.4859593e-09
2.711657e-09
2.9234425e-09
3.1126063e-09
3.2638933e-09
3.373971e-09
3.4313775e-09
3.4669885e-09
3.5028777e-09
3.7118135e-09
4.6164543e-09
5.5939916e-09
6.459453e-09
7.3610316e-09
8.2088876e-09
9.0855376e-09
9.9219176e-09
1.0776158e-08
1.1606153e-08
1.244526e-08
1.3271989e-08
1.4103014e-08
1.4928506e-08
1.5756077e-08
1.6581386e-08
1.740776e-08
1.8232897e-08
1.9058245e-08
1.9882275e-08
2.0705289e-08
2.1526218e-08
2.2344687e-08
2.3159653e-08
2.3970496e-08
2.4776184e-08
2.5575879e-08
2.6368402e-08
2.715307e-08
2.7928651e-08
2.8694246e-08
2.9448695e-08
3.0191302e-08
3.092144e-08
3.1637764e-08
3.2339153e-08
3.3025375e-08
3.369518e-08
3.4348358e-08
3.4983786e-08
3.5601067e-08
3.6199205e-08
3.6777776e-08
3.7336056e-08
3.787363e-08
3.8390014e-08
3.8884803e-08
3.9357677e-08
3.9808324e-08
4.0236526e-08
4.0642101e-08
4.1024913e-08
4.1384885e-08
4.1721977e-08
4.2036176e-08
4.2327469e-08
4.2595937e-08
4.28417e-08
4.3064973e-08
4.3265995e-08
4.3445065e-08
4.3602495e-08
4.3738663e-08
4.3853936e-08
4.3948744e-08
4.402351e-08
4.40788e-08
4.4115633e-08
4.4132415e-08
4.4131485e-08
4.4112967e-08
4.4075595e-08
4.4018934e-08
4.3945776e-08
4.3862266e-08
4.3767016e-08
4.3650245e-08
4.3522328e-08
4.3380172e-08
4.3225276e-08
4.3058059e-08
4.2878897e-08
4.2688344e-08
4.2486931e-08
4.2275032e-08
4.2053169e-08
4.1821683e-08
4.1581035e-08
4.1331628e-08
4.1073908e-08
4.0808411e-08
4.0534994e-08
4.0254401e-08
3.9966951e-08
3.9673111e-08
3.9373076e-08
3.9067224e-08
3.8755756e-08
3.8438887e-08
3.8117085e-08
3.7790493e-08
3.7459205e-08
3.7123614e-08
3.6783683e-08
3.6439689e-08
3.6091786e-08
3.5740037e-08
3.5384528e-08
3.5025324e-08
3.4662537e-08
3.4296183e-08
3.3926215e-08
3.3552503e-08
3.3175185e-08
3.279414e-08
3.240909e-08
3.2019915e-08
3.162658e-08
3.1228554e-08
3.0825937e-08
3.0417928e-08
3.0004697e-08
2.9584958e-08
2.9159163e-08
2.8725581e-08
2.8284952e-08
2.7834683e-08
2.7376035e-08
2.6905334e-08
2.6424689e-08
2.5928852e-08
2.5421062e-08
2.4894006e-08
2.435268e-08
2.3786821e-08
2.3204054e-08
2.2590157e-08
2.1956281e-08
2.1283214e-08
2.0586099e-08
1.9840599e-08
1.9067714e-08
1.8240578e-08
1.7376252e-08
1.6377032e-08
1.5437343e-08
1.5331941e-08
1.5532959e-08
1.5887428e-08
1.6281395e-08
1.6679927e-08
1.7067467e-08
1.7421696e-08
1.7748005e-08
1.8034409e-08
1.8287713e-08
1.849773e-08
1.8670553e-08
1.8805839e-08
1.8920437e-08
1.9064222e-08
1.9253355e-08
1.9468358e-08
1.9699822e-08
1.9941513e-08
2.0189284e-08
2.0440788e-08
2.0691862e-08
2.0938923e-08
2.117761e-08
2.1406531e-08
2.1615433e-08
2.1684494e-08
2.1627086e-08
2.1498804e-08
2.1323536e-08
2.1119197e-08
2.0899251e-08
2.0675906e-08
2.0455962e-08
2.0254504e-08
2.0080704e-08
1.9942595e-08
1.9887238e-08
1.9898012e-08
2.0208222e-08
2.0990962e-08
2.2065065e-08
2.3765689e-08
2.5689932e-08
2.8076546e-08
3.1223761e-08
3.5406873e-08
4.0947208e-08
4.8131337e-08
5.7327247e-08
6.8475293e-08
8.0621874e-08
9.0112582e-08
9.5645191e-08
9.2293404e-08
8.5924856e-08
7.306275e-08
6.3386505e-08
5.1108725e-08
4.8374204e-08
4.2112031e-08
4.5036819e-08
1.1769392e-07
1.3283179e-07
1.3033944e-07
1.1842616e-07
9.675293e-08
6.9343609e-08
4.0712237e-08
1.8455184e-08
6.005974e-09
1.4966091e-09
5.0448461e-10
2.9903466e-10
1.9592902e-10
1.5963578e-10
1.4031572e-10
1.2884218e-10
1.2265776e-10
1.1954635e-10
1.1885425e-10
1.191357e-10
1.2058287e-10
1.230541e-10
1.2703881e-10
1.3346158e-10
1.4294089e-10
1.5491671e-10
1.696711e-10
1.877549e-10
2.0975006e-10
2.364814e-10
2.6885997e-10
3.0819434e-10
3.5575059e-10
4.1309774e-10
4.8173594e-10
5.6270998e-10
6.561096e-10
7.6295931e-10
8.8701521e-10
1.0318686e-09
1.202348e-09
1.3996612e-09
1.6210123e-09
1.8667629e-09
2.1404714e-09
2.445578e-09
2.783619e-09
3.1475184e-09
3.524248e-09
3.9789908e-09
4.4804232e-09
5.0141047e-09
5.5713022e-09
6.1366875e-09
6.6942748e-09
7.2175871e-09
7.685096e-09
8.0590729e-09
8.3312069e-09
8.4730951e-09
8.560885e-09
8.6490198e-09
9.1623023e-09
1.139515e-08
1.3803853e-08
1.5937538e-08
1.8160171e-08
2.0249848e-08
2.2410414e-08
2.4471337e-08
2.6576158e-08
2.8620948e-08
3.0688054e-08
3.2724455e-08
3.4771299e-08
3.680435e-08
3.8842397e-08
4.0874745e-08
4.290961e-08
4.4941325e-08
4.697348e-08
4.9002318e-08
5.1028599e-08
5.3049697e-08
5.5064714e-08
5.707109e-08
5.906732e-08
6.1050869e-08
6.3019697e-08
6.4970919e-08
6.6902859e-08
6.8812508e-08
7.0697666e-08
7.2555485e-08
7.4384269e-08
7.6182485e-08
7.7946816e-08
7.967455e-08
8.1365133e-08
8.3015455e-08
8.4625006e-08
8.6191042e-08
8.7712591e-08
8.9187212e-08
9.0613853e-08
9.1990736e-08
9.3316837e-08
9.459096e-08
9.5812103e-08
9.6979478e-08
9.8092306e-08
9.9150045e-08
1.0015224e-07
1.0109854e-07
1.0198875e-07
1.0282276e-07
1.0360052e-07
1.0432199e-07
1.0498735e-07
1.055969e-07
1.0615113e-07
1.0665063e-07
1.0709612e-07
1.0748835e-07
1.0782824e-07
1.0811667e-07
1.083547e-07
1.0854335e-07
1.0868397e-07
1.0877909e-07
1.0882491e-07
1.0882687e-07
1.087855e-07
1.086976e-07
1.085621e-07
1.083858e-07
1.0818389e-07
1.0795302e-07
1.0766899e-07
1.0735735e-07
1.070105e-07
1.0663213e-07
1.0622326e-07
1.0578482e-07
1.0531816e-07
1.048246e-07
1.0430505e-07
1.0376079e-07
1.0319268e-07
1.0260183e-07
1.0198925e-07
1.0135603e-07
1.007035e-07
1.000313e-07
9.9341273e-08
9.8634202e-08
9.7911242e-08
9.7172877e-08
9.6420039e-08
9.5653215e-08
9.4872966e-08
9.408043e-08
9.3275964e-08
9.2459806e-08
9.163292e-08
9.0795231e-08
8.9947419e-08
8.9089866e-08
8.8222727e-08
8.7346232e-08
8.6460531e-08
8.5565907e-08
8.4662406e-08
8.3749916e-08
8.2828112e-08
8.1897348e-08
8.0957317e-08
8.0007351e-08
7.9047144e-08
7.8076618e-08
7.7094466e-08
7.6100937e-08
7.5094054e-08
7.4074245e-08
7.3038335e-08
7.1987447e-08
7.0917301e-08
6.9829738e-08
6.8718352e-08
6.7586263e-08
6.6424396e-08
6.5237975e-08
6.4014029e-08
6.2760575e-08
6.1459538e-08
6.0123282e-08
5.8726441e-08
5.7287874e-08
5.5772428e-08
5.4207688e-08
5.2546159e-08
5.0825291e-08
4.8984911e-08
4.7076927e-08
4.5034897e-08
4.2901125e-08
4.0435883e-08
3.8120482e-08