/*--------------------------------*- C++ -*----------------------------------*\
| =========                 |                                                 |
| \\      /  F ield         | OpenFOAM: The Open Source CFD Toolbox           |
|  \\    /   O peration     | Version:  2.4.0                                 |
|   \\  /    A nd           | Web:      www.OpenFOAM.org                      |
|    \\/     M anipulation  |                                                 |
\*---------------------------------------------------------------------------*/
FoamFile
{
    version     2.0;
    format      ascii;
    class       volScalarField;
    location    "5000";
    object      p;
}
// * * * * * * * * * * * * * * * * * * * * * * * * * * * * * * * * * * * * * //

dimensions      [0 2 -2 0 0 0 0];

internalField   nonuniform List<scalar> 
78300
(
2.2024864e-07
0.076457361
0.029597501
0.065499147
0.043832912
0.064829528
0.064732059
0.084931514
0.095760689
0.10762253
0.11111027
0.11514526
0.11653047
0.11806113
0.11874004
0.11967525
0.12020835
0.12086183
0.12133577
0.12181821
0.12218696
0.12250697
0.12273791
0.12290262
0.12301547
0.12308542
0.12311313
0.12311375
0.12308308
0.12303619
0.1229719
0.12290235
0.12283207
0.1227711
0.12272934
0.12271666
0.12274288
0.12279544
0.12288285
0.1229989
0.12314558
0.1233186
0.12351404
0.12372643
0.12394661
0.12416817
0.12437455
0.12456217
0.12470512
0.12483012
0.12491524
0.12497543
0.12498394
0.12496261
0.1248653
0.12473913
0.12449387
0.12423707
0.12378515
0.12337923
0.12263439
0.12208605
0.12088378
0.12034374
0.11968914
0.11932111
0.11894728
0.11876569
0.1186219
0.11861386
0.11865991
0.11880827
0.11901523
0.11930439
0.11965195
0.12006927
0.12054313
0.1210788
0.12166875
0.12231518
0.12301366
0.12376481
0.1245659
0.12541677
0.12631553
0.12726164
0.12825364
0.12929077
0.13037172
0.13149563
0.13266122
0.13386747
0.13511311
0.136397
0.13771789
0.13907452
0.14046561
0.14188992
0.14334602
0.14483273
0.14634852
0.14789216
0.14946207
0.15105699
0.15267537
0.15431589
0.15597699
0.15765733
0.15935534
0.16106968
0.16279882
0.1645414
0.16629592
0.16806106
0.16983533
0.17161745
0.17340599
0.17519969
0.17699717
0.17879724
0.18059857
0.18240001
0.18420032
0.18599841
0.18779311
0.18958342
0.19136824
0.19314665
0.19491764
0.19668038
0.19843391
0.20017749
0.20191029
0.20363154
0.20534058
0.20703669
0.20871931
0.21038779
0.21204165
0.21368033
0.21530341
0.21691042
0.218501
0.22007476
0.22163141
0.22317061
0.22469215
0.22619575
0.22768124
0.22914843
0.23059716
0.23202731
0.23343879
0.23483152
0.23620543
0.2375605
0.23889672
0.24021411
0.24151269
0.2427925
0.24405362
0.2452961
0.24652007
0.24772559
0.24891283
0.25008186
0.2512329
0.252366
0.25348143
0.25457923
0.25565974
0.25672292
0.25776924
0.25879854
0.25981145
0.26080765
0.26178796
0.26275184
0.26370042
0.26463279
0.2655505
0.26645216
0.26733994
0.26821169
0.26907051
0.26991311
0.270744
0.27155824
0.2723623
0.27314894
0.27392745
0.27468721
0.27544168
0.27617531
0.27690756
0.27761582
0.27832819
0.27901188
0.27970746
0.28036745
0.28105049
0.28168789
0.28236426
0.28298084
0.28365912
0.28425782
0.28494981
0.28552996
0.28624364
0.28685267
0.28758531
0.28824628
0.28900297
0.28971513
0.29050092
0.29126092
0.29207817
0.29288055
0.29372657
0.29455978
0.29542178
0.29626399
0.29711545
0.29792854
0.29870929
0.2994202
0.30005343
0.30057854
0.3009752
0.3012207
0.30128341
0.30115276
0.30078765
0.30019916
0.29933931
0.29826775
0.2969804
0.29548451
0.29375353
0.29178944
0.28954364
0.28701754
0.28413032
0.28088439
0.27713847
0.27291181
0.2679324
0.26222484
0.25518568
0.24658112
0.23636306
0.22406655
0.20985545
0.19273633
0.17340173
0.14984405
0.12385403
0.091423413
0.057829458
0.015087312
-0.023844864
-0.07199668
-0.093335159
-0.11910726
-0.11002979
-0.12151081
-0.087069673
-0.10284054
-0.046294647
-0.086251287
-3.8416546e-06
0.076453771
0.029595836
0.065498688
0.043838834
0.064827065
0.064726067
0.084904741
0.09573059
0.10759363
0.11109152
0.11512978
0.1165209
0.11805376
0.11873448
0.11967016
0.12020411
0.12085775
0.1213322
0.12181496
0.12218425
0.12250474
0.12273626
0.12290145
0.12301469
0.12308498
0.12311298
0.12311385
0.12308339
0.12303665
0.12297249
0.122903
0.12283273
0.12277169
0.12272978
0.12271686
0.12274282
0.12279514
0.12288229
0.12299811
0.12314455
0.12331737
0.12351265
0.12372493
0.12394505
0.12416665
0.12437314
0.12456097
0.12470416
0.12482936
0.12491467
0.12497506
0.12498374
0.12496261
0.12486544
0.12473944
0.12449424
0.12423756
0.12378559
0.12337969
0.12263469
0.12208638
0.12088456
0.12034471
0.11968994
0.11932189
0.11894802
0.11876643
0.11862263
0.11861459
0.11866064
0.118809
0.11901597
0.11930513
0.11965269
0.12007002
0.12054388
0.12107957
0.12166951
0.12231596
0.12301444
0.12376559
0.12456668
0.12541755
0.12631631
0.12726242
0.12825441
0.12929154
0.13037249
0.13149639
0.13266197
0.13386822
0.13511384
0.13639772
0.13771859
0.13907521
0.14046629
0.14189058
0.14334666
0.14483335
0.14634912
0.14789274
0.14946263
0.15105753
0.15267589
0.15431638
0.15597746
0.15765777
0.15935576
0.16107007
0.16279918
0.16454174
0.16629623
0.16806134
0.16983559
0.17161768
0.17340618
0.17519985
0.17699731
0.17879735
0.18059865
0.18240007
0.18420034
0.18599841
0.18779308
0.18958337
0.19136816
0.19314655
0.19491752
0.19668022
0.19843373
0.20017729
0.20191006
0.20363129
0.20534031
0.2070364
0.20871899
0.21038746
0.21204129
0.21367996
0.21530302
0.21691001
0.21850057
0.22007432
0.22163095
0.22317014
0.22469166
0.22619525
0.22768073
0.2291479
0.23059662
0.23202677
0.23343823
0.23483095
0.23620485
0.23755992
0.23889613
0.24021351
0.24151208
0.24279189
0.244053
0.24529548
0.24651944
0.24772496
0.2489122
0.25008122
0.25123226
0.25236536
0.25348078
0.25457858
0.25565909
0.25672227
0.25776859
0.25879789
0.2598108
0.260807
0.26178731
0.2627512
0.26369977
0.26463214
0.26554986
0.26645152
0.26733931
0.26821105
0.26906988
0.26991249
0.27074338
0.27155762
0.2723617
0.27314833
0.27392686
0.27468663
0.2754411
0.27617474
0.276907
0.27761527
0.27832765
0.27901135
0.27970694
0.28036694
0.28105
0.28168741
0.2823638
0.28298039
0.2836587
0.28425742
0.28494943
0.2855297
0.2862437
0.2868531
0.28758612
0.28824747
0.28900457
0.28971713
0.29050332
0.29126372
0.29208136
0.29288411
0.29373047
0.29456398
0.29542623
0.29626861
0.29712014
0.29793311
0.2987136
0.29942403
0.30005662
0.30058086
0.30097647
0.3012207
0.30128197
0.30114969
0.30078286
0.30019255
0.29933098
0.29825793
0.29696907
0.29547159
0.29373891
0.29177296
0.2895251
0.28699663
0.28410675
0.28085761
0.27710802
0.27287669
0.26789163
0.26217621
0.25512645
0.2465107
0.2362801
0.2239706
0.20974452
0.19261051
0.17325831
0.14968442
0.12367495
0.091232957
0.057627199
0.014893994
-0.024017337
-0.07210139
-0.093380822
-0.11910737
-0.11001609
-0.12148896
-0.087055283
-0.10283076
-0.046290163
-0.086251924
-8.0443729e-06
0.076451072
0.029593081
0.065499135
0.043844805
0.064825422
0.064720434
0.084878116
0.095700236
0.10756422
0.11107216
0.11511376
0.11651092
0.1180461
0.1187287
0.11966487
0.12019972
0.12085352
0.1213285
0.12181158
0.12218143
0.12250243
0.12273455
0.12290023
0.12301387
0.12308451
0.12311281
0.12311394
0.1230837
0.12303714
0.1229731
0.12290368
0.12283342
0.12277231
0.12273025
0.12271707
0.12274277
0.12279484
0.12288173
0.1229973
0.12314351
0.12331611
0.12351122
0.12372338
0.12394345
0.12416508
0.12437167
0.12455973
0.12470316
0.12482857
0.12491407
0.12497466
0.12498352
0.12496259
0.12486557
0.12473974
0.12449462
0.12423805
0.12378603
0.12338018
0.12263501
0.12208678
0.12088541
0.12034579
0.11969082
0.11932275
0.11894883
0.11876724
0.11862342
0.11861537
0.11866142
0.11880979
0.11901675
0.11930592
0.11965348
0.12007081
0.12054468
0.12108037
0.12167032
0.12231677
0.12301525
0.12376641
0.1245675
0.12541837
0.12631713
0.12726324
0.12825522
0.12929235
0.13037329
0.13149718
0.13266275
0.13386899
0.1351146
0.13639846
0.13771932
0.13907593
0.14046699
0.14189126
0.14334733
0.144834
0.14634974
0.14789334
0.14946321
0.15105808
0.15267641
0.15431688
0.15597793
0.15765821
0.15935618
0.16107047
0.16279955
0.16454208
0.16629654
0.16806162
0.16983583
0.1716179
0.17340637
0.17520002
0.17699744
0.17879745
0.18059872
0.18240011
0.18420036
0.1859984
0.18779304
0.1895833
0.19136807
0.19314643
0.19491737
0.19668005
0.19843353
0.20017706
0.20190981
0.20363102
0.20534002
0.20703608
0.20871865
0.2103871
0.21204091
0.21367956
0.2153026
0.21690958
0.21850012
0.22007385
0.22163047
0.22316964
0.22469115
0.22619472
0.22768019
0.22914735
0.23059606
0.23202619
0.23343764
0.23483035
0.23620424
0.2375593
0.23889551
0.24021288
0.24151144
0.24279124
0.24405235
0.24529482
0.24651878
0.24772429
0.24891153
0.25008055
0.25123158
0.25236468
0.2534801
0.2545779
0.2556584
0.25672159
0.2577679
0.25879721
0.25981011
0.26080632
0.26178663
0.26275052
0.26369909
0.26463147
0.26554919
0.26645085
0.26733864
0.26821039
0.26906922
0.26991183
0.27074273
0.27155698
0.27236106
0.2731477
0.27392624
0.27468601
0.2754405
0.27617414
0.27690641
0.27761469
0.27832709
0.2790108
0.2797064
0.28036642
0.28104949
0.28168692
0.28236333
0.28297994
0.28365827
0.28425701
0.28494904
0.28552943
0.28624376
0.28685355
0.28758696
0.2882487
0.28900622
0.28971917
0.2905058
0.29126659
0.29208464
0.29288776
0.29373449
0.29456829
0.2954308
0.29627335
0.29712494
0.29793779
0.29871799
0.29942794
0.30005985
0.3005832
0.30097771
0.30122063
0.30128041
0.30114645
0.30077783
0.30018565
0.29932232
0.29824772
0.2969573
0.29545818
0.29372376
0.29175587
0.28950588
0.28697497
0.28408232
0.28082988
0.27707647
0.27284033
0.2678494
0.26212584
0.25506511
0.24643781
0.23619426
0.22387137
0.20962983
0.1924805
0.17311017
0.14951962
0.1234903
0.091036794
0.057419311
0.014695967
-0.024192765
-0.072206422
-0.093424682
-0.11910528
-0.10999975
-0.1214656
-0.087038864
-0.10282095
-0.046283923
-0.086253497
-1.1793653e-05
0.076448937
0.02959049
0.065499839
0.043850751
0.06482387
0.064714892
0.084852047
0.095670782
0.10753562
0.11105324
0.11509802
0.11650109
0.11803855
0.118723
0.11965966
0.12019538
0.12084935
0.12132484
0.12180825
0.12217864
0.12250014
0.12273285
0.12289903
0.12301305
0.12308406
0.12311265
0.12311404
0.12308401
0.12303761
0.12297371
0.12290435
0.1228341
0.12277292
0.12273071
0.12271729
0.12274272
0.12279454
0.12288118
0.1229965
0.12314247
0.12331487
0.1235098
0.12372185
0.12394187
0.12416353
0.12437022
0.1245585
0.12470217
0.12482777
0.12491347
0.12497426
0.1249833
0.12496257
0.12486569
0.12474004
0.12449499
0.12423855
0.12378648
0.12338067
0.12263535
0.1220872
0.12088622
0.12034683
0.11969167
0.11932359
0.11894962
0.11876803
0.11862418
0.11861614
0.11866218
0.11881055
0.11901751
0.11930669
0.11965425
0.12007159
0.12054547
0.12108116
0.12167111
0.12231756
0.12301605
0.12376721
0.1245683
0.12541917
0.12631793
0.12726403
0.12825602
0.12929314
0.13037407
0.13149796
0.13266352
0.13386974
0.13511534
0.13639919
0.13772004
0.13907662
0.14046767
0.14189192
0.14334797
0.14483462
0.14635035
0.14789392
0.14946377
0.15105862
0.15267693
0.15431737
0.1559784
0.15765865
0.15935659
0.16107085
0.1627999
0.1645424
0.16629684
0.16806189
0.16983608
0.17161811
0.17340656
0.17520017
0.17699757
0.17879755
0.18059879
0.18240015
0.18420037
0.18599838
0.187793
0.18958323
0.19136797
0.1931463
0.19491722
0.19667987
0.19843333
0.20017684
0.20190957
0.20363075
0.20533973
0.20703577
0.20871832
0.21038674
0.21204054
0.21367917
0.21530219
0.21690915
0.21849967
0.22007339
0.22162999
0.22316915
0.22469064
0.2261942
0.22767965
0.2291468
0.2305955
0.23202561
0.23343706
0.23482976
0.23620364
0.23755869
0.23889489
0.24021226
0.24151081
0.2427906
0.2440517
0.24529417
0.24651812
0.24772364
0.24891086
0.25007989
0.25123091
0.25236401
0.25347943
0.25457723
0.25565773
0.25672091
0.25776723
0.25879653
0.25980944
0.26080564
0.26178596
0.26274985
0.26369843
0.2646308
0.26554852
0.26645019
0.26733799
0.26820974
0.26906857
0.26991119
0.27074209
0.27155635
0.27236043
0.27314709
0.27392562
0.27468541
0.2754399
0.27617355
0.27690583
0.27761412
0.27832653
0.27901025
0.27970588
0.2803659
0.28104899
0.28168643
0.28236287
0.28297949
0.28365786
0.2842566
0.28494866
0.28552917
0.28624382
0.28685399
0.28758779
0.28824991
0.28900784
0.28972119
0.29050824
0.29126942
0.29208788
0.29289136
0.29373845
0.29457255
0.29543531
0.29627803
0.29712968
0.2979424
0.29872233
0.29943179
0.30006304
0.3005855
0.30097894
0.30122055
0.30127886
0.30114324
0.30077287
0.30017883
0.29931376
0.29823764
0.29694568
0.29544494
0.29370878
0.29173898
0.28948688
0.28695356
0.28405818
0.28080247
0.2770453
0.27280439
0.26780767
0.26207606
0.25500452
0.24636581
0.23610954
0.22377345
0.20951675
0.19235232
0.17296431
0.14935755
0.12330894
0.090844633
0.057216496
0.014503948
-0.024361082
-0.072304524
-0.093462975
-0.1190996
-0.10998135
-0.12144136
-0.087021987
-0.10281102
-0.046277393
-0.086254974
-1.5230546e-05
0.076447008
0.029588396
0.065500674
0.04385711
0.064822307
0.064709286
0.084825549
0.095641269
0.10750692
0.11103422
0.11508209
0.11649113
0.11803088
0.1187172
0.11965435
0.12019096
0.1208451
0.12132111
0.12180486
0.12217581
0.12249781
0.12273113
0.1228978
0.12301223
0.12308359
0.12311249
0.12311413
0.12308433
0.1230381
0.12297432
0.12290503
0.12283479
0.12277355
0.12273118
0.12271751
0.12274267
0.12279424
0.12288061
0.12299568
0.12314141
0.12331359
0.12350835
0.12372028
0.12394024
0.12416193
0.12436873
0.12455724
0.12470114
0.12482695
0.12491284
0.12497384
0.12498306
0.12496254
0.12486582
0.12474035
0.12449538
0.12423906
0.12378695
0.12338118
0.12263572
0.12208763
0.120887
0.12034785
0.1196925
0.11932442
0.1189504
0.1187688
0.11862493
0.1186169
0.11866293
0.11881131
0.11901827
0.11930745
0.11965502
0.12007236
0.12054625
0.12108194
0.12167191
0.12231836
0.12301685
0.12376801
0.1245691
0.12541997
0.12631873
0.12726483
0.12825681
0.12929393
0.13037485
0.13149873
0.13266429
0.1338705
0.13511609
0.13639992
0.13772076
0.13907733
0.14046836
0.14189259
0.14334862
0.14483525
0.14635096
0.14789451
0.14946434
0.15105916
0.15267745
0.15431787
0.15597887
0.15765909
0.159357
0.16107124
0.16280026
0.16454274
0.16629714
0.16806217
0.16983632
0.17161833
0.17340674
0.17520033
0.17699769
0.17879765
0.18059886
0.1824002
0.18420039
0.18599837
0.18779296
0.18958316
0.19136787
0.19314618
0.19491707
0.1966797
0.19843313
0.20017662
0.20190932
0.20363048
0.20533943
0.20703545
0.20871798
0.21038639
0.21204016
0.21367877
0.21530177
0.21690871
0.21849922
0.22007292
0.2216295
0.22316865
0.22469013
0.22619367
0.22767911
0.22914624
0.23059493
0.23202504
0.23343647
0.23482916
0.23620303
0.23755808
0.23889427
0.24021162
0.24151017
0.24278996
0.24405105
0.24529352
0.24651746
0.24772297
0.2489102
0.25007921
0.25123024
0.25236333
0.25347875
0.25457655
0.25565705
0.25672023
0.25776654
0.25879585
0.25980876
0.26080496
0.26178528
0.26274917
0.26369775
0.26463013
0.26554785
0.26644953
0.26733732
0.26820908
0.26906792
0.26991054
0.27074145
0.27155571
0.2723598
0.27314646
0.273925
0.27468479
0.27543929
0.27617296
0.27690525
0.27761355
0.27832597
0.2790097
0.27970534
0.28036537
0.28104849
0.28168594
0.2823624
0.28297904
0.28365743
0.28425619
0.28494827
0.28552889
0.28624388
0.28685442
0.28758862
0.28825113
0.28900949
0.28972324
0.29051072
0.2912723
0.29209118
0.29289504
0.29374248
0.29457689
0.29543991
0.2962828
0.29713451
0.29794712
0.29872676
0.29943573
0.3000663
0.30058786
0.3009802
0.30122049
0.3012773
0.30113999
0.30076783
0.3001719
0.29930505
0.29822737
0.29693384
0.29543144
0.29369353
0.29172177
0.28946753
0.28693175
0.28403359
0.28077453
0.27701352
0.27276776
0.26776511
0.26202532
0.25494278
0.2462925
0.23602328
0.22367385
0.20940179
0.19222217
0.17281631
0.14919337
0.12312568
0.090651133
0.057013256
0.014313349
-0.02452571
-0.072396188
-0.093494634
-0.11908819
-0.1099592
-0.12141463
-0.087004042
-0.10280029
-0.046270758
-0.086255991
-1.837148e-05
0.076445227
0.029586849
0.065501782
0.043864173
0.064820912
0.064703656
0.084798255
0.095611268
0.10747774
0.11101484
0.11506574
0.11648091
0.11802298
0.11871123
0.11964887
0.1201864
0.12084072
0.12131727
0.12180136
0.12217288
0.12249541
0.12272935
0.12289653
0.12301137
0.12308311
0.12311232
0.12311423
0.12308466
0.1230386
0.12297496
0.12290574
0.12283551
0.12277419
0.12273166
0.12271773
0.12274262
0.12279392
0.12288001
0.12299482
0.1231403
0.12331227
0.12350684
0.12371865
0.12393854
0.12416027
0.12436718
0.12455591
0.12470006
0.12482608
0.12491218
0.12497339
0.1249828
0.12496249
0.12486593
0.12474066
0.12449577
0.12423958
0.12378744
0.12338171
0.12263611
0.12208808
0.12088776
0.12034885
0.11969333
0.11932523
0.11895117
0.11876957
0.11862569
0.11861766
0.11866368
0.11881207
0.11901903
0.11930822
0.1196558
0.12007315
0.12054704
0.12108274
0.12167271
0.12231917
0.12301766
0.12376883
0.12456992
0.12542079
0.12631955
0.12726565
0.12825762
0.12929474
0.13037565
0.13149953
0.13266507
0.13387127
0.13511685
0.13640067
0.13772149
0.13907805
0.14046906
0.14189328
0.14334929
0.1448359
0.14635158
0.14789511
0.14946492
0.15105972
0.15267798
0.15431837
0.15597934
0.15765955
0.15935743
0.16107164
0.16280063
0.16454308
0.16629745
0.16806245
0.16983657
0.17161855
0.17340694
0.17520049
0.17699783
0.17879775
0.18059894
0.18240024
0.1842004
0.18599835
0.18779292
0.18958309
0.19136778
0.19314606
0.19491692
0.19667952
0.19843293
0.20017639
0.20190906
0.2036302
0.20533913
0.20703513
0.20871764
0.21038602
0.21203977
0.21367836
0.21530135
0.21690827
0.21849876
0.22007244
0.22162901
0.22316814
0.2246896
0.22619313
0.22767856
0.22914568
0.23059435
0.23202445
0.23343587
0.23482855
0.23620241
0.23755745
0.23889363
0.24021098
0.24150952
0.2427893
0.24405038
0.24529284
0.24651678
0.24772229
0.24890951
0.25007852
0.25122954
0.25236263
0.25347805
0.25457585
0.25565635
0.25671953
0.25776584
0.25879515
0.25980806
0.26080426
0.26178458
0.26274847
0.26369705
0.26462944
0.26554716
0.26644884
0.26733664
0.2682084
0.26906724
0.26990987
0.27074078
0.27155505
0.27235915
0.27314581
0.27392436
0.27468416
0.27543867
0.27617234
0.27690464
0.27761295
0.27832539
0.27900913
0.27970478
0.28036483
0.28104796
0.28168543
0.28236191
0.28297857
0.28365699
0.28425576
0.28494787
0.28552859
0.28624393
0.28685486
0.28758947
0.28825238
0.28901119
0.28972535
0.29051328
0.29127528
0.29209459
0.29289883
0.29374665
0.29458138
0.29544467
0.29628773
0.29713952
0.297952
0.29873135
0.29943981
0.30006968
0.30059031
0.30098152
0.30122043
0.3012757
0.30113664
0.30076263
0.30016475
0.29929606
0.29821677
0.29692162
0.2954175
0.29367776
0.29170399
0.28944753
0.28690919
0.28400814
0.28074564
0.27698065
0.27272986
0.2677211
0.26197284
0.25487896
0.24621676
0.23593426
0.22357107
0.20928329
0.19208815
0.17266415
0.14902492
0.12293814
0.090454029
0.05680748
0.01412285
-0.024686951
-0.072480069
-0.093517442
-0.11906865
-0.1099314
-0.12138399
-0.08698427
-0.10278828
-0.046263857
-0.086256521
-2.127124e-05
0.07644363
0.029585907
0.065503337
0.043872169
0.064819932
0.064698147
0.084770189
0.095580775
0.10744809
0.11099512
0.11504898
0.11647042
0.11801484
0.11870507
0.11964322
0.1201817
0.12083619
0.1213133
0.12179774
0.12216985
0.12249292
0.1227275
0.12289522
0.12301049
0.12308262
0.12311215
0.12311433
0.12308499
0.12303912
0.12297561
0.12290646
0.12283624
0.12277485
0.12273216
0.12271795
0.12274256
0.12279358
0.12287939
0.12299393
0.12313914
0.12331088
0.12350526
0.12371694
0.12393677
0.12415852
0.12436555
0.12455452
0.12469891
0.12482515
0.12491146
0.12497289
0.12498251
0.12496242
0.12486603
0.12474095
0.12449617
0.12424011
0.12378795
0.12338226
0.12263652
0.12208853
0.1208885
0.12034983
0.11969416
0.11932605
0.11895194
0.11877034
0.11862644
0.11861842
0.11866444
0.11881283
0.1190198
0.119309
0.11965658
0.12007395
0.12054784
0.12108355
0.12167353
0.12231999
0.12301849
0.12376966
0.12457075
0.12542163
0.12632038
0.12726648
0.12825845
0.12929556
0.13037647
0.13150034
0.13266587
0.13387206
0.13511763
0.13640144
0.13772224
0.13907878
0.14046978
0.14189398
0.14334997
0.14483656
0.14635222
0.14789573
0.14946551
0.15106029
0.15267852
0.15431889
0.15597983
0.15766001
0.15935786
0.16107204
0.16280101
0.16454342
0.16629777
0.16806274
0.16983683
0.17161878
0.17340713
0.17520066
0.17699796
0.17879786
0.18059901
0.18240029
0.18420042
0.18599834
0.18779287
0.18958302
0.19136768
0.19314593
0.19491676
0.19667934
0.19843272
0.20017615
0.2019088
0.20362992
0.20533882
0.2070348
0.20871728
0.21038564
0.21203938
0.21367794
0.21530091
0.21690781
0.21849828
0.22007195
0.2216285
0.22316761
0.22468906
0.22619258
0.22767799
0.22914509
0.23059375
0.23202384
0.23343525
0.23482792
0.23620177
0.2375568
0.23889297
0.24021031
0.24150884
0.24278862
0.2440497
0.24529215
0.24651609
0.24772159
0.2489088
0.25007781
0.25122883
0.25236192
0.25347733
0.25457513
0.25565563
0.25671881
0.25776512
0.25879443
0.25980734
0.26080354
0.26178386
0.26274775
0.26369634
0.26462872
0.26554645
0.26644813
0.26733594
0.2682077
0.26906655
0.26990918
0.2707401
0.27155437
0.27235848
0.27314515
0.27392371
0.27468351
0.27543803
0.27617171
0.27690402
0.27761234
0.27832479
0.27900854
0.27970421
0.28036427
0.28104743
0.28168491
0.28236141
0.28297808
0.28365653
0.28425532
0.28494745
0.28552828
0.28624397
0.28685531
0.28759034
0.28825367
0.28901293
0.28972753
0.29051592
0.29127835
0.29209811
0.29290275
0.29375097
0.29458602
0.29544959
0.29629284
0.29714469
0.29795704
0.2987361
0.29944404
0.30007318
0.30059284
0.30098288
0.30122038
0.30127404
0.30113317
0.30075725
0.30015736
0.29928677
0.29820582
0.29690898
0.29540309
0.29366146
0.2916856
0.28942683
0.28688586
0.28398182
0.28071574
0.27694663
0.27269063
0.26767554
0.26191852
0.25481294
0.24613849
0.23584229
0.22346507
0.20916115
0.19195023
0.17250783
0.14885226
0.12274657
0.090253806
0.056600151
0.013933794
-0.024842528
-0.072553096
-0.09352827
-0.11903832
-0.10989601
-0.1213482
-0.086961967
-0.10277467
-0.046256546
-0.086256507
-2.3867376e-05
0.076442216
0.029585665
0.065505516
0.043881364
0.064819646
0.064692942
0.084741409
0.095549811
0.10741804
0.11097509
0.11503182
0.11645966
0.11800647
0.11869872
0.1196374
0.12017685
0.12083152
0.1213092
0.12179401
0.12216673
0.12249036
0.1227256
0.12289386
0.12300958
0.1230821
0.12311197
0.12311444
0.12308534
0.12303965
0.12297629
0.12290721
0.122837
0.12277554
0.12273267
0.12271818
0.12274249
0.12279323
0.12287875
0.122993
0.12313794
0.12330944
0.12350362
0.12371516
0.12393492
0.1241567
0.12436384
0.12455304
0.1246977
0.12482416
0.12491069
0.12497235
0.12498217
0.12496231
0.1248661
0.12474123
0.12449655
0.12424065
0.12378846
0.12338282
0.12263695
0.12208898
0.1208892
0.12035079
0.11969498
0.11932685
0.1189527
0.11877111
0.1186272
0.11861918
0.1186652
0.1188136
0.11902058
0.11930979
0.11965738
0.12007475
0.12054865
0.12108437
0.12167435
0.12232082
0.12301933
0.1237705
0.1245716
0.12542247
0.12632123
0.12726732
0.12825929
0.1292964
0.1303773
0.13150116
0.13266668
0.13387287
0.13511842
0.13640222
0.13772301
0.13907953
0.14047051
0.14189469
0.14335067
0.14483723
0.14635287
0.14789636
0.14946612
0.15106087
0.15267908
0.15431942
0.15598033
0.15766048
0.15935831
0.16107246
0.16280139
0.16454378
0.16629809
0.16806303
0.16983709
0.17161901
0.17340733
0.17520083
0.1769981
0.17879797
0.18059909
0.18240033
0.18420043
0.18599833
0.18779283
0.18958294
0.19136757
0.1931458
0.1949166
0.19667915
0.1984325
0.20017591
0.20190854
0.20362963
0.20533851
0.20703446
0.20871692
0.21038526
0.21203897
0.21367752
0.21530046
0.21690734
0.2184978
0.22007144
0.22162797
0.22316707
0.2246885
0.22619201
0.2276774
0.22914449
0.23059314
0.23202321
0.23343461
0.23482727
0.23620111
0.23755613
0.23889229
0.24020962
0.24150815
0.24278792
0.24404899
0.24529144
0.24651537
0.24772086
0.24890808
0.25007708
0.2512281
0.25236118
0.2534766
0.25457439
0.25565488
0.25671807
0.25776438
0.25879368
0.25980659
0.2608028
0.26178312
0.26274702
0.2636956
0.26462799
0.26554572
0.26644741
0.26733521
0.26820698
0.26906584
0.26990847
0.2707394
0.27155368
0.27235779
0.27314446
0.27392303
0.27468284
0.27543737
0.27617106
0.27690339
0.27761171
0.27832417
0.27900794
0.27970363
0.2803637
0.28104687
0.28168437
0.2823609
0.28297759
0.28365607
0.28425486
0.28494701
0.28552794
0.286244
0.28685576
0.28759123
0.28825499
0.28901473
0.28972977
0.29051865
0.29128152
0.29210174
0.2929068
0.29375542
0.29459081
0.29545467
0.29629812
0.29715004
0.29796226
0.29874101
0.2994484
0.3000768
0.30059547
0.30098429
0.30122033
0.30127234
0.3011296
0.30075171
0.30014974
0.29927719
0.29819451
0.29689593
0.2953882
0.29364462
0.29166658
0.28940544
0.28686173
0.2839546
0.28068482
0.27691144
0.27265005
0.26762841
0.26186235
0.25474474
0.24605768
0.23574747
0.22335583
0.2090355
0.19180855
0.17234754
0.14867578
0.12255154
0.090051302
0.056392491
0.013748173
-0.024989815
-0.072611891
-0.093523743
-0.11899429
-0.10985087
-0.12130583
-0.086936359
-0.10275901
-0.046248659
-0.086255884
-2.6185168e-05
0.076440992
0.029586229
0.065508523
0.043892079
0.064820377
0.064688266
0.084711969
0.095518343
0.10738765
0.1109548
0.11501429
0.11644865
0.11799787
0.1186922
0.11963141
0.12017185
0.1208267
0.12130498
0.12179016
0.12216351
0.12248771
0.12272363
0.12289246
0.12300864
0.12308157
0.12311178
0.12311455
0.1230857
0.1230402
0.12297698
0.12290798
0.12283778
0.12277624
0.12273319
0.12271842
0.12274242
0.12279286
0.12287807
0.12299203
0.12313669
0.12330793
0.1235019
0.12371329
0.12393298
0.12415478
0.12436203
0.12455149
0.1246964
0.12482309
0.12490984
0.12497173
0.12498177
0.12496215
0.12486613
0.12474149
0.12449692
0.12424117
0.12378897
0.12338337
0.12263739
0.12208941
0.12088985
0.12035172
0.11969578
0.11932764
0.11895346
0.11877187
0.11862794
0.11861993
0.11866596
0.11881438
0.11902136
0.11931058
0.11965818
0.12007556
0.12054947
0.12108521
0.12167519
0.12232167
0.12302018
0.12377136
0.12457245
0.12542333
0.12632209
0.12726818
0.12826015
0.12929725
0.13037815
0.131502
0.13266751
0.13387369
0.13511923
0.13640301
0.13772379
0.13908029
0.14047125
0.14189541
0.14335137
0.14483792
0.14635354
0.147897
0.14946673
0.15106146
0.15267964
0.15431995
0.15598084
0.15766096
0.15935876
0.16107288
0.16280178
0.16454414
0.16629842
0.16806333
0.16983736
0.17161924
0.17340754
0.175201
0.17699824
0.17879807
0.18059916
0.18240037
0.18420044
0.18599831
0.18779278
0.18958286
0.19136746
0.19314566
0.19491643
0.19667896
0.19843228
0.20017566
0.20190826
0.20362932
0.20533818
0.20703411
0.20871654
0.21038486
0.21203855
0.21367707
0.2153
0.21690686
0.21849729
0.22007092
0.22162743
0.22316651
0.22468793
0.22619142
0.2276768
0.22914388
0.23059251
0.23202257
0.23343396
0.23482661
0.23620044
0.23755544
0.23889159
0.24020892
0.24150744
0.2427872
0.24404826
0.24529071
0.24651463
0.24772012
0.24890733
0.25007633
0.25122734
0.25236043
0.25347584
0.25457363
0.25565412
0.2567173
0.25776361
0.25879292
0.25980583
0.26080204
0.26178236
0.26274626
0.26369485
0.26462724
0.26554497
0.26644666
0.26733447
0.26820624
0.2690651
0.26990774
0.27073867
0.27155296
0.27235708
0.27314376
0.27392234
0.27468216
0.2754367
0.27617039
0.27690273
0.27761107
0.27832354
0.27900732
0.27970302
0.28036311
0.2810463
0.28168381
0.28236037
0.28297707
0.28365558
0.28425439
0.28494656
0.28552758
0.28624403
0.28685621
0.28759213
0.28825635
0.28901657
0.28973208
0.29052145
0.29128479
0.29210548
0.29291098
0.29376002
0.29459576
0.29545992
0.29630356
0.29715557
0.29796766
0.29874608
0.29945291
0.30008054
0.30059817
0.30098574
0.30122027
0.30127057
0.30112591
0.30074598
0.30014186
0.29926729
0.29818283
0.29688245
0.29537282
0.29362721
0.29164694
0.28938333
0.28683678
0.28392645
0.28065284
0.27687504
0.27260807
0.26757965
0.26180426
0.25467425
0.24597428
0.2356497
0.22324336
0.20890629
0.19166313
0.17218346
0.14849571
0.12235342
0.089847277
0.056185628
0.01356769
-0.025126137
-0.07265302
-0.093500302
-0.11893339
-0.10979356
-0.1212552
-0.086906475
-0.10274074
-0.046240009
-0.086254529
-2.8234582e-05
0.07643994
0.029587715
0.065512593
0.043904703
0.064822526
0.064684403
0.084681943
0.095486321
0.10735695
0.11093427
0.11499638
0.11643739
0.11798905
0.1186855
0.11962524
0.12016671
0.12082174
0.12130062
0.12178619
0.12216018
0.12248497
0.1227216
0.12289101
0.12300766
0.12308102
0.12311158
0.12311466
0.12308607
0.12304077
0.1229777
0.12290878
0.12283859
0.12277696
0.12273373
0.12271865
0.12274234
0.12279248
0.12287736
0.12299102
0.12313537
0.12330636
0.1235001
0.12371134
0.12393094
0.12415277
0.12436013
0.12454983
0.124695
0.12482193
0.12490891
0.12497104
0.1249813
0.12496193
0.1248661
0.12474169
0.12449725
0.12424166
0.12378946
0.12338391
0.12263782
0.12208981
0.12089044
0.1203526
0.11969656
0.1193284
0.11895419
0.11877261
0.11862868
0.11862068
0.11866672
0.11881515
0.11902214
0.11931138
0.11965899
0.12007638
0.1205503
0.12108605
0.12167604
0.12232253
0.12302104
0.12377222
0.12457333
0.12542421
0.12632296
0.12726906
0.12826102
0.12929811
0.13037901
0.13150285
0.13266836
0.13387452
0.13512005
0.13640382
0.13772458
0.13908107
0.14047201
0.14189615
0.14335209
0.14483861
0.14635421
0.14789765
0.14946736
0.15106205
0.15268021
0.1543205
0.15598136
0.15766145
0.15935921
0.1610733
0.16280218
0.1645445
0.16629875
0.16806362
0.16983763
0.17161948
0.17340774
0.17520117
0.17699837
0.17879818
0.18059923
0.18240041
0.18420045
0.18599828
0.18779272
0.18958278
0.19136734
0.19314551
0.19491626
0.19667875
0.19843204
0.2001754
0.20190797
0.20362901
0.20533784
0.20703374
0.20871615
0.21038444
0.21203811
0.21367661
0.21529952
0.21690636
0.21849677
0.22007038
0.22162688
0.22316594
0.22468733
0.22619081
0.22767617
0.22914324
0.23059186
0.2320219
0.23343328
0.23482592
0.23619974
0.23755473
0.23889087
0.24020819
0.2415067
0.24278645
0.24404751
0.24528995
0.24651387
0.24771935
0.24890656
0.25007556
0.25122656
0.25235964
0.25347505
0.25457284
0.25565333
0.25671651
0.25776283
0.25879213
0.25980504
0.26080125
0.26178158
0.26274547
0.26369407
0.26462646
0.2655442
0.26644589
0.2673337
0.26820548
0.26906435
0.26990699
0.27073793
0.27155222
0.27235634
0.27314304
0.27392162
0.27468145
0.275436
0.27616971
0.27690206
0.2776104
0.27832289
0.27900668
0.2797024
0.2803625
0.28104572
0.28168324
0.28235982
0.28297654
0.28365508
0.28425391
0.2849461
0.28552721
0.28624405
0.28685667
0.28759305
0.28825774
0.28901846
0.28973445
0.29052434
0.29128815
0.29210934
0.29291528
0.29376476
0.29460087