/*--------------------------------*- C++ -*----------------------------------*\
| =========                 |                                                 |
| \\      /  F ield         | OpenFOAM: The Open Source CFD Toolbox           |
|  \\    /   O peration     | Version:  2.4.0                                 |
|   \\  /    A nd           | Web:      www.OpenFOAM.org                      |
|    \\/     M anipulation  |                                                 |
\*---------------------------------------------------------------------------*/
FoamFile
{
    version     2.0;
    format      ascii;
    class       volVectorField;
    location    "5000";
    object      U;
}
// * * * * * * * * * * * * * * * * * * * * * * * * * * * * * * * * * * * * * //

dimensions      [0 1 -1 0 0 0 0];

internalField   nonuniform List<vector> 
78300
(
(0.0067706318 2.9707907e-05 -5.899587e-27)
(0.004678902 2.2547257e-05 -3.9663053e-27)
(0.0079756102 -4.8908406e-05 8.7234944e-26)
(0.0061498312 -0.00019108597 2.8062578e-20)
(0.0067798365 -0.00045717485 0)
(0.0041742631 -0.00049188448 0)
(0.0026087035 -0.00046919717 0)
(-0.00035214851 7.7934823e-05 1.4220457e-19)
(-0.0017321032 0.00056923296 1.57426e-19)
(-0.0023850257 0.0010040926 -1.726375e-19)
(-0.0019239271 0.00097251156 3.3762523e-25)
(-0.0016081271 0.00092879322 3.5235971e-19)
(-0.0012020255 0.00076922157 -3.5009714e-19)
(-0.00099782438 0.00069082514 3.4994246e-19)
(-0.00085021609 0.00062595239 -3.4851859e-19)
(-0.00077183606 0.00059571176 3.492879e-19)
(-0.00069877107 0.00055967684 6.2385858e-24)
(-0.00065680106 0.00054090024 3.5243042e-19)
(-0.00061054401 0.00051310714 7.1061117e-19)
(-0.00057438167 0.00048904017 -3.5924824e-19)
(-0.00053613991 0.00045945648 -3.638692e-19)
(-0.00050401862 0.00043191672 3.6934821e-19)
(-0.00047486134 0.00040432681 1.4313295e-24)
(-0.00045497083 0.00038303834 -3.8232769e-19)
(-0.00044203604 0.0003679048 -7.7782163e-19)
(-0.00043394235 0.00035729537 0)
(-0.00043147571 0.00035169875 0)
(-0.00043420794 0.00035062944 0)
(-0.000442344 0.0003541424 4.1265256e-19)
(-0.00045641836 0.00036256208 7.7522066e-25)
(-0.00047612894 0.00037557634 -4.2314219e-19)
(-0.00050212217 0.00039363276 -8.5620993e-19)
(-0.00053382879 0.00041626054 -3.3019825e-24)
(-0.00057132414 0.00044351128 2.3057502e-24)
(-0.00061348324 0.00047454156 -7.5256543e-24)
(-0.00065849328 0.00050800202 7.1658157e-24)
(-0.00070222382 0.00054008389 4.5142196e-19)
(-0.00074479645 0.00056947851 -4.5666567e-19)
(-0.00078722066 0.00059651426 4.6249917e-19)
(-0.00082853261 0.00062015579 -9.3785772e-19)
(-0.00086873852 0.00064009864 4.7596458e-19)
(-0.00090672975 0.000655247 0)
(-0.00094186676 0.00066489812 4.9184537e-19)
(-0.00097295682 0.00066803955 0)
(-0.00099944575 0.00066419892 -5.0996729e-19)
(-0.0010200702 0.00065255504 5.199184e-19)
(-0.0010352688 0.00063350761 5.3018187e-19)
(-0.0010445096 0.00060694497 -5.4095928e-19)
(-0.0010533915 0.00057672431 0)
(-0.0010617711 0.00054453575 -1.6927162e-24)
(-0.0010662124 0.00050921608 -5.729536e-19)
(-0.0010650768 0.00047045223 -4.3113303e-25)
(-0.0010588101 0.00042902359 -2.9601305e-19)
(-0.0010436443 0.00038414104 -6.0070165e-19)
(-0.0010240033 0.00033827953 -3.0418226e-19)
(-0.00099174362 0.00028964282 1.8764896e-23)
(-0.00095962207 0.00024295459 -9.4758623e-24)
(-0.00091065456 0.00019468859 9.5154606e-24)
(-0.00087676171 0.00015244653 -1.5675802e-19)
(-0.00082152578 0.00010968318 -3.1420861e-19)
(-0.00082196909 7.6222854e-05 7.835016e-20)
(-0.0007991758 4.1231283e-05 7.8124325e-20)
(-0.00096684403 1.1522778e-05 -1.8897909e-23)
(-0.0012958514 3.7872175e-07 9.4098121e-24)
(-0.001524565 3.3894286e-07 0)
(-0.0017487446 3.1889426e-07 9.2942928e-24)
(-0.0019349394 3.2651331e-07 -9.2942532e-24)
(-0.0021133645 3.2065728e-07 9.25986e-24)
(-0.0022677957 3.2820506e-07 -5.9224865e-27)
(-0.0024138083 3.2857786e-07 1.4826895e-27)
(-0.0025440997 3.3600513e-07 7.5836107e-27)
(-0.0026668485 3.3962115e-07 -9.2628897e-24)
(-0.0027788318 3.4649172e-07 0)
(-0.0028844446 3.5235329e-07 5.0841123e-17)
(-0.0029823031 3.5825669e-07 5.0926479e-17)
(-0.0030748244 3.6469441e-07 -9.3854494e-24)
(-0.003161447 3.7010782e-07 -3.9378504e-26)
(-0.0032435266 3.7524623e-07 1.8893491e-23)
(-0.0033208607 3.8013999e-07 -9.4686821e-24)
(-0.0033942213 3.8455873e-07 0)
(-0.0034635514 3.8840163e-07 -9.6258825e-24)
(-0.0035293006 3.9073771e-07 9.6258682e-24)
(-0.0035914639 3.9522351e-07 9.750838e-24)
(-0.0036502953 3.966015e-07 -9.7508249e-24)
(-0.0037058153 3.9787885e-07 0)
(-0.0037581675 3.9842611e-07 0)
(-0.0038073713 3.9864675e-07 0)
(-0.0038535005 3.9774617e-07 -1.012835e-23)
(-0.003896581 3.9495414e-07 -8.6002295e-26)
(-0.0039366441 3.9493569e-07 1.0214334e-23)
(-0.0039737035 3.911869e-07 -1.0396144e-23)
(-0.0040077891 3.8735192e-07 5.1502494e-24)
(-0.0040389177 3.8284026e-07 5.2458839e-24)
(-0.0040671244 3.7782226e-07 0)
(-0.0040924215 3.7235834e-07 0)
(-0.0041148487 3.6508409e-07 0)
(-0.0041344264 3.5731544e-07 0)
(-0.0041511712 3.5216552e-07 0)
(-0.0041651361 3.4231314e-07 0)
(-0.0041763322 3.3520744e-07 0)
(-0.004184813 3.2513953e-07 0)
(-0.0041906128 3.1505066e-07 0)
(-0.0041937695 3.0410307e-07 0)
(-0.0041942965 2.9345716e-07 0)
(-0.0041922094 2.8220538e-07 0)
(-0.0041875501 2.7055293e-07 0)
(-0.0041803621 2.5839264e-07 0)
(-0.0041706932 2.459511e-07 0)
(-0.0041585929 2.3307085e-07 0)
(-0.0041441137 2.2002154e-07 0)
(-0.0041273104 2.06615e-07 0)
(-0.0041082403 1.9306438e-07 0)
(-0.0040869617 1.792455e-07 0)
(-0.0040635349 1.6535423e-07 0)
(-0.0040380228 1.5126478e-07 0)
(-0.0040104893 1.3716639e-07 0)
(-0.0039809991 1.2294536e-07 0)
(-0.0039496186 1.0866888e-07 3.4344259e-24)
(-0.0039164155 9.4309743e-08 -3.4344281e-24)
(-0.0038814574 8.0032527e-08 -3.5046308e-24)
(-0.0038448131 6.571297e-08 7.6923322e-17)
(-0.0038065555 5.1595779e-08 7.7668784e-17)
(-0.0037667574 3.7516927e-08 3.6099847e-24)
(-0.003725492 2.3582829e-08 -3.6099874e-24)
(-0.0036828323 9.6798266e-09 0)
(-0.0036388515 -3.9845659e-09 1.8574259e-24)
(-0.0035936226 -1.7559957e-08 1.7373475e-26)
(-0.003547218 -3.0769763e-08 -1.874804e-24)
(-0.003499709 -4.3883552e-08 0)
(-0.0034511655 -5.6706738e-08 0)
(-0.0034016594 -7.0090091e-08 0)
(-0.003351254 -8.0694903e-08 9.802465e-25)
(-0.0033000144 -9.4178939e-08 -9.8024799e-25)
(-0.0032480157 -1.0680442e-07 0)
(-0.0031953064 -1.1676882e-07 0)
(-0.0031419726 -1.2879558e-07 0)
(-0.0030880907 -1.3959248e-07 5.1087237e-25)
(-0.0030337159 -1.5086092e-07 -5.108728e-25)
(-0.0029788877 -1.6001256e-07 0)
(-0.0029236839 -1.706095e-07 0)
(-0.0028681586 -1.8027615e-07 0)
(-0.0028123686 -1.8948253e-07 0)
(-0.0027563707 -1.9862271e-07 -2.1384311e-24)
(-0.0027002155 -2.0727486e-07 2.138435e-24)
(-0.0026439533 -2.1552853e-07 0)
(-0.0025876361 -2.2364601e-07 4.3674434e-24)
(-0.0025313105 -2.3123368e-07 -4.3674474e-24)
(-0.002475022 -2.3867756e-07 4.4261033e-24)
(-0.0024188163 -2.4559726e-07 -4.4261096e-24)
(-0.0023627343 -2.5226324e-07 -4.4833433e-24)
(-0.0023068201 -2.5867191e-07 4.4833495e-24)
(-0.0022511131 -2.6465387e-07 4.5391412e-24)
(-0.0021956557 -2.7041694e-07 2.7346152e-26)
(-0.0021404812 -2.758716e-07 -4.5664996e-24)
(-0.0020856278 -2.8092316e-07 0)
(-0.0020311321 -2.8572483e-07 0)
(-0.0019770274 -2.9023064e-07 0)
(-0.0019233471 -2.9439975e-07 1.0228197e-16)
(-0.0018701188 -2.9838584e-07 4.8704233e-20)
(-0.0018173751 -3.0211736e-07 -1.0342905e-16)
(-0.0017651414 -3.0558711e-07 0)
(-0.0017134467 -3.0834608e-07 0)
(-0.0016623152 -3.118106e-07 0)
(-0.0016117742 -3.1381783e-07 0)
(-0.0015618431 -3.1683417e-07 0)
(-0.0015125513 -3.187031e-07 0)
(-0.0014639136 -3.2050675e-07 0)
(-0.0014159575 -3.2216305e-07 0)
(-0.0013686952 -3.2360465e-07 0)
(-0.0013221589 -3.249531e-07 9.9517287e-24)
(-0.0012763512 -3.2606684e-07 -1.9945296e-23)
(-0.0012313123 -3.2672116e-07 9.993575e-24)
(-0.0011870327 -3.2750523e-07 0)
(-0.0011435652 -3.2799055e-07 0)
(-0.0011008865 -3.2810517e-07 0)
(-0.0010590637 -3.2746708e-07 0)
(-0.0010180571 -3.2887382e-07 1.0230728e-23)
(-0.00097795713 -3.2776909e-07 -1.023073e-23)
(-0.00093869397 -3.273432e-07 0)
(-0.0009003973 -3.2653464e-07 0)
(-0.00086295756 -3.2583805e-07 0)
(-0.00082656121 -3.2464851e-07 0)
(-0.0007910298 -3.2378268e-07 0)
(-0.00075664418 -3.2227105e-07 0)
(-0.00072312265 -3.2085247e-07 0)
(-0.00069088058 -3.1897656e-07 0)
(-0.00065949731 -3.1728215e-07 0)
(-0.00062957199 -3.1472246e-07 0)
(-0.00060047511 -3.1288564e-07 0)
(-0.00057309194 -3.096289e-07 0)
(-0.00054647432 -3.0773337e-07 2.1400816e-23)
(-0.00052193321 -3.0377426e-07 -2.1400827e-23)
(-0.0004980461 -3.017034e-07 2.151794e-23)
(-0.00047674227 -2.9656177e-07 -2.1517967e-23)
(-0.00045591404 -2.9471435e-07 0)
(-0.00043838979 -2.8851744e-07 0)
(-0.00042105026 -2.8652829e-07 -2.1741246e-23)
(-0.00040803452 -2.7860431e-07 2.1741276e-23)
(-0.000394758 -2.7689393e-07 1.1905305e-16)
(-0.00038726451 -2.6676294e-07 1.1948802e-16)
(-0.00037883871 -2.6553922e-07 0)
(-0.0003782282 -2.524318e-07 0)
(-0.00037580209 -2.5255711e-07 0)
(-0.00038403599 -2.3500765e-07 0)
(-0.00038919971 -2.3760853e-07 0)
(-0.00040844266 -2.1742111e-07 -1.2098129e-16)
(-0.00042138218 -2.2749074e-07 -1.214493e-16)
(-0.00045080565 -5.348446e-06 -2.2845719e-20)
(-0.00047394357 -2.439537e-05 2.232932e-23)
(-0.00048361622 -4.4507248e-05 1.832695e-19)
(-0.00049543566 -6.5582457e-05 2.2375987e-23)
(-0.00049058924 -8.4504857e-05 5.4818675e-26)
(-0.00048675036 -0.0001030582 -7.266692e-19)
(-0.00046915572 -0.00011758379 7.2190532e-19)
(-0.000450482 -0.00013018289 -4.3711104e-23)
(-0.00042074068 -0.00013743598 7.0952706e-19)
(-0.00038802096 -0.00014108991 -7.0202707e-19)
(-0.0003457905 -0.00013821496 6.9369649e-19)
(-0.00029866471 -0.00012986722 -6.8490232e-19)
(-0.00024263753 -0.00011368049 -3.1749014e-23)
(-0.00018003598 -9.0005144e-05 -5.8603913e-26)
(-0.00010833619 -5.6882189e-05 -5.7191231e-26)
(-2.7980806e-05 -1.3765922e-05 9.647679e-24)
(6.4525626e-05 4.1976796e-05 -1.2700392e-18)
(0.00016627897 0.00010879906 -1.2507586e-18)
(0.00027903772 0.00018771421 0)
(0.00040094938 0.00027732531 1.2140118e-18)
(0.00053340346 0.00037821871 -1.1969684e-18)
(0.00067486053 0.00048888979 2.4511472e-24)
(0.00082647445 0.00060955227 3.0849151e-27)
(0.0009863242 0.00073812975 1.7522943e-23)
(0.0011551946 0.00087435776 -1.1334853e-18)
(0.0013302131 0.0010151609 2.2371525e-18)
(0.0015113263 0.001159368 2.2080623e-18)
(0.0016913554 0.0013007233 -1.4905997e-23)
(0.001862784 0.0014357592 -1.0745492e-18)
(0.0020297401 0.0015695002 -1.0584651e-18)
(0.0021953929 0.0017047521 0)
(0.0023610509 0.0018429129 2.046383e-18)
(0.0025292975 0.0019863359 -1.0039786e-18)
(0.0027008879 0.0021359774 -9.8363853e-19)
(0.0028789924 0.0022947888 9.6223472e-19)
(0.0030643613 0.0024639032 -9.3948007e-19)
(0.0032624047 0.0026480476 -6.9379163e-24)
(0.0034731581 0.0028480755 -8.8986477e-19)
(0.003707535 0.0030735978 8.6271795e-19)
(0.003969026 0.0033285893 -3.1453551e-24)
(0.004288556 0.0036373868 3.0939056e-24)
(0.0046988865 0.0040107872 -7.6924072e-19)
(0.0051718458 0.0044139996 0)
(0.0057236478 0.0048527822 1.3939031e-18)
(0.0063518519 0.0053146962 1.2857647e-24)
(0.0070950895 0.0058167341 0)
(0.0079476139 0.0063351843 -5.6132794e-19)
(0.0089789569 0.0068976541 0)
(0.010172466 0.0074533985 -4.3955076e-19)
(0.011651528 0.0080312485 -1.5236183e-25)
(0.013296079 0.0084760626 -2.7435226e-19)
(0.015284848 0.0088071652 1.7663717e-19)
(0.017234863 0.0087020426 2.9753011e-22)
(0.019135907 0.00808055 -7.6632337e-20)
(0.019394036 0.0064639012 1.4914729e-25)
(0.018342317 0.0046026232 1.5627279e-19)
(0.015857406 0.0028368235 -1.0091467e-19)
(0.013565171 0.0015951527 -9.3859159e-20)
(0.010217347 0.00070127172 -5.1998502e-20)
(0.0087272847 0.00027183915 -1.865184e-20)
(0.0055929137 4.0120718e-05 -5.5084686e-21)
(0.0062190454 -3.5294736e-05 0)
(0.0031610315 -1.2937542e-05 -2.3103495e-21)
(0.020529938 8.0249124e-05 0)
(0.014654828 6.0306234e-05 -3.1534459e-21)
(0.024010073 -0.000155834 3.1510369e-25)
(0.018868078 -0.00057658468 -2.1608551e-20)
(0.020547653 -0.0013706986 0)
(0.01298941 -0.0014881581 -3.2467825e-25)
(0.0082397569 -0.0014292102 8.4472392e-20)
(-0.00057755577 0.00018518262 -6.8501787e-23)
(-0.0049060612 0.0016643328 -2.42378e-19)
(-0.0070202033 0.002987651 2.6593035e-19)
(-0.0057430488 0.002914399 0)
(-0.0048183793 0.0027908144 -5.4268813e-19)
(-0.0036181397 0.0023182643 0)
(-0.0030054799 0.00208421 -2.5779449e-25)
(-0.0025634284 0.0018903066 5.3691594e-19)
(-0.002326855 0.0017993607 -5.3810683e-19)
(-0.0021079863 0.0016914175 1.0787547e-18)
(-0.0019811131 0.0016347595 -5.4295587e-19)
(-0.0018426299 0.0015513466 -1.6407391e-23)
(-0.0017339763 0.0014788949 0)
(-0.0016196647 0.0013900222 2.1412073e-24)
(-0.0015235601 0.0013072049 -2.1677777e-24)
(-0.0014366063 0.0012243221 0)
(-0.0013772771 0.0011603138 -5.8900901e-19)
(-0.0013388918 0.0011148632 5.9915999e-19)
(-0.0013151628 0.0010831138 6.0888693e-19)
(-0.0013083504 0.0010664996 4.7160169e-24)
(-0.0013172149 0.0010635731 -6.2716622e-19)
(-0.0013423456 0.0010744918 4.8492912e-24)
(-0.0013853162 0.0011002146 -6.4396817e-19)
(-0.001445234 0.0011398076 1.3037574e-18)
(-0.0015239656 0.001194583 6.5952792e-19)
(-0.0016198078 0.0012631209 -5.0869089e-24)
(-0.0017328986 0.001345532 6.7411468e-19)
(-0.0018598442 0.0014392554 6.8117313e-19)
(-0.0019951996 0.0015402104 -1.3762809e-18)
(-0.0021267882 0.0016370304 -1.0613453e-23)
(-0.0022548958 0.001725742 1.0732091e-23)
(-0.0023824704 0.0018072749 -1.0876689e-23)
(-0.002506711 0.0018785414 7.2240415e-19)
(-0.0026276018 0.001938604 -7.3322742e-19)
(-0.0027419005 0.0019841914 -1.1376425e-23)
(-0.0028476954 0.0020131835 -7.5765698e-19)
(-0.0029414827 0.0020225578 0)
(-0.0030216241 0.0020108936 7.8555643e-19)
(-0.0030844598 0.0019757676 -8.0086638e-19)
(-0.0031312952 0.0019183697 -1.2470992e-23)
(-0.0031607018 0.0018384474 3.3558656e-23)
(-0.0031889744 0.0017474097 -1.2964516e-23)
(-0.0032157286 0.0016503119 -5.4109289e-24)
(-0.0032309047 0.0015437374 1.3469784e-23)
(-0.0032296272 0.0014267708 -4.4889441e-19)
(-0.0032131065 0.0013016852 7.618566e-25)
(-0.0031704447 0.0011662292 4.6263351e-19)
(-0.0031143861 0.0010276509 1.4290437e-23)
(-0.0030215176 0.0008808244 4.7365291e-19)
(-0.002928723 0.00073955369 1.4566197e-23)
(-0.0027873862 0.00059379448 4.8114006e-19)
(-0.0026900204 0.00046566374 -1.5625796e-23)
(-0.0025327975 0.0003365538 -9.2272678e-25)
(-0.0025393689 0.00023472963 1.206821e-19)
(-0.0024865075 0.00012983839 1.2030399e-19)
(-0.0029947272 4.1703773e-05 -1.4896999e-20)
(-0.0039727142 7.6712705e-06 2.8534097e-23)
(-0.0046597877 6.39694e-06 0)
(-0.0053296574 5.6932309e-06 1.4314557e-23)
(-0.005887643 5.1358624e-06 -2.8595185e-23)
(-0.0064205658 4.6375063e-06 1.4280656e-23)
(-0.0068827098 4.2276455e-06 -1.4251756e-23)
(-0.0073187691 3.8635376e-06 -2.283308e-27)
(-0.0077083297 3.5610739e-06 -1.1679104e-26)
(-0.0080748695 3.2924526e-06 1.4265136e-23)
(-0.0084094714 3.064227e-06 -1.4316116e-23)
(-0.008724768 2.8633953e-06 -3.8247995e-26)
(-0.0090169888 2.6848713e-06 -4.5946155e-26)
(-0.0092930934 2.5285433e-06 2.8853269e-23)
(-0.009551591 2.3848691e-06 -2.8967181e-23)
(-0.0097963944 2.2545813e-06 1.4513787e-23)
(-0.010026995 2.1346721e-06 0)
(-0.010245627 2.0232432e-06 1.4736221e-23)
(-0.010452171 1.9180873e-06 8.7074418e-26)
(-0.010647931 1.8155157e-06 -1.4823086e-23)
(-0.01083292 1.7252075e-06 0)
(-0.011007877 1.6308876e-06 0)
(-0.011172879 1.5407683e-06 0)
(-0.011328346 1.4524889e-06 -1.5347504e-23)
(-0.011474344 1.3667321e-06 1.5347426e-23)
(-0.011611091 1.2809467e-06 0)
(-0.011738671 1.1924314e-06 1.5728812e-23)
(-0.011857175 1.1151252e-06 -3.1595009e-23)
(-0.011966653 1.0293389e-06 1.5866202e-23)
(-0.012067194 9.4597252e-07 0)
(-0.012158853 8.6335034e-07 0)
(-0.012241736 7.818756e-07 0)
(-0.012315884 7.0182505e-07 -8.3124655e-24)
(-0.01238142 6.187909e-07 8.3124475e-24)
(-0.012438403 5.3691916e-07 8.4794973e-24)
(-0.01248689 4.6543418e-07 8.6500888e-26)
(-0.012527039 3.8258341e-07 -1.7220324e-23)
(-0.012558889 3.1191789e-07 8.6543414e-24)
(-0.012582602 2.3217463e-07 0)
(-0.012598284 1.5631406e-07 8.929878e-24)
(-0.01260605 8.003273e-08 -8.9298776e-24)
(-0.012605941 6.7151446e-09 9.1214172e-24)
(-0.012598006 -6.6275961e-08 -9.1214175e-24)
(-0.012582372 -1.3812104e-07 9.318437e-24)
(-0.012559172 -2.0902093e-07 -9.3184428e-24)
(-0.012528552 -2.7849417e-07 0)
(-0.012490661 -3.4700726e-07 0)
(-0.012445658 -4.1367259e-07 9.7261608e-24)
(-0.012393709 -4.7892012e-07 -9.7261707e-24)
(-0.012334987 -5.4236527e-07 9.9354755e-24)
(-0.012269668 -6.0452683e-07 1.0569825e-25)
(-0.012197933 -6.6462379e-07 -1.0041215e-23)
(-0.012119972 -7.2316128e-07 -5.1271706e-24)
(-0.012035978 -7.7980371e-07 5.1271897e-24)
(-0.011946145 -8.3486402e-07 0)
(-0.011850672 -8.8783036e-07 5.2885491e-24)
(-0.011749763 -9.3910147e-07 5.4019738e-26)
(-0.011643621 -9.8825398e-07 -5.3426067e-24)
(-0.011532453 -1.0358058e-06 0)
(-0.011416478 -1.0810014e-06 0)
(-0.011295912 -1.1245182e-06 0)
(-0.011170977 -1.1657201e-06 0)
(-0.011041891 -1.2049676e-06 2.8334008e-24)
(-0.010908872 -1.2419235e-06 -5.6936692e-24)
(-0.010772139 -1.2770424e-06 -2.675319e-26)
(-0.010631909 -1.3099702e-06 -2.6649484e-26)
(-0.010488396 -1.3410832e-06 5.8539346e-24)
(-0.010341808 -1.3700412e-06 -2.9402506e-24)
(-0.01019236 -1.3996774e-06 1.4964623e-24)
(-0.010040242 -1.4195304e-06 -1.4964701e-24)
(-0.0098856489 -1.4471201e-06 7.6124856e-25)
(-0.0097288044 -1.4710412e-06 -7.612532e-25)
(-0.0095698539 -1.4858544e-06 0)
(-0.009409055 -1.5056411e-06 -3.9021761e-25)
(-0.0092466357 -1.5208886e-06 -3.9651051e-25)
(-0.0090827618 -1.5374235e-06 7.8673495e-25)
(-0.0089175498 -1.5462615e-06 -1.5983133e-24)
(-0.0087512322 -1.5588634e-06 1.5983236e-24)
(-0.0085839718 -1.568338e-06 -3.2454129e-24)
(-0.0084159375 -1.5755207e-06 3.2454309e-24)
(-0.0082472987 -1.5819696e-06 3.2932239e-24)
(-0.0080782068 -1.5865923e-06 2.350592e-26)
(-0.0079088127 -1.5893818e-06 -3.31677e-24)
(-0.0077392706 -1.5914787e-06 -6.7260433e-24)
(-0.0075697206 -1.5916138e-06 6.7260831e-24)
(-0.0074002982 -1.590963e-06 6.8164494e-24)
(-0.00723114 -1.5886967e-06 -1.3677328e-23)
(-0.0070623684 -1.5854107e-06 -4.3792293e-26)
(-0.0068941154 -1.580994e-06 -4.3236456e-26)
(-0.0067264983 -1.5750141e-06 6.9479931e-24)
(-0.0065596438 -1.5683005e-06 0)
(-0.0063936518 -1.5603046e-06 0)
(-0.0062286365 -1.5513404e-06 0)
(-0.0060647071 -1.5415723e-06 0)
(-0.005901963 -1.530532e-06 0)
(-0.005740504 -1.5185124e-06 0)
(-0.0055804132 -1.5060948e-06 0)
(-0.0054217876 -1.492774e-06 -1.4624236e-23)
(-0.0052647033 -1.4786521e-06 -2.9323869e-23)
(-0.0051092474 -1.4626921e-06 2.9473365e-23)
(-0.0049554926 -1.4486947e-06 -1.4773795e-23)
(-0.0048035195 -1.4303168e-06 -1.4918735e-23)
(-0.0046533876 -1.4154063e-06 1.4918817e-23)
(-0.0045051843 -1.3968366e-06 1.5059379e-23)
(-0.0043589545 -1.3777927e-06 -3.0187538e-23)
(-0.0042147794 -1.3588961e-06 3.0323859e-23)
(-0.0040726981 -1.3394878e-06 -1.5195783e-23)
(-0.0039328047 -1.3194619e-06 0)
(-0.0037951093 -1.2989746e-06 0)
(-0.0036597303 -1.2774286e-06 -1.5455731e-23)
(-0.0035266426 -1.2561348e-06 1.545579e-23)
(-0.0033960008 -1.2339774e-06 0)
(-0.0032677402 -1.2107702e-06 -1.5639991e-23)
(-0.0031420566 -1.1854456e-06 -1.5758828e-23)
(-0.0030188383 -1.1663313e-06 3.1399048e-23)
(-0.0028983485 -1.1395036e-06 3.1630887e-23)
(-0.0027803884 -1.1146168e-06 1.1301392e-25)
(-0.0026653356 -1.0885619e-06 -3.1744241e-23)
(-0.002552876 -1.0628562e-06 3.1964813e-23)
(-0.0024435529 -1.0352767e-06 1.0751784e-25)
(-0.0023368518 -1.0084009e-06 -6.4250875e-23)
(-0.0022335915 -9.7938246e-07 -1.03981e-25)
(-0.0021329572 -9.5024718e-07 -1.0223067e-25)
(-0.0020361606 -9.1932739e-07 3.2384893e-23)
(-0.0019419824 -8.8821312e-07 -3.2584406e-23)
(-0.0018521713 -8.5406826e-07 3.2584507e-23)
(-0.0017648993 -8.2088898e-07 -3.2777443e-23)
(-0.0016827518 -7.8260418e-07 3.2777586e-23)
(-0.0016029712 -7.4705992e-07 -3.2964122e-23)
(-0.0015293889 -7.0387934e-07 3.2964219e-23)
(-0.0014578614 -6.6438838e-07 0)
(-0.0013940309 -6.1357675e-07 0)
(-0.0013317511 -5.7000884e-07 0)
(-0.001279299 -5.1060519e-07 0)
(-0.0012275689 -4.6001142e-07 3.3488896e-23)
(-0.0011886792 -3.8770426e-07 -3.3488989e-23)
(-0.0011492372 -3.2857588e-07 0)
(-0.0011269435 -2.3824699e-07 0)
(-0.0011021695 -1.6788444e-07 -3.3813452e-23)
(-0.0011005411 -5.2236369e-08 3.3813478e-23)
(-0.0010938949 3.3042388e-08 3.3970104e-23)
(-0.0011187837 1.86006e-07 -3.3970069e-23)
(-0.0011350468 2.8487347e-07 0)
(-0.0011929088 4.5878183e-07 -3.4202045e-23)
(-0.0012328891 5.2741793e-07 -3.4354836e-23)
(-0.0013217184 -1.4489202e-05 7.0414381e-20)
(-0.0013912124 -7.1196033e-05 2.8207849e-19)
(-0.0014201488 -0.00013098816 -2.8233112e-19)
(-0.0014546107 -0.00019364855 -8.3487147e-26)
(-0.0014396598 -0.00024986568 5.622748e-19)
(-0.0014270435 -0.000304847 1.119335e-18)
(-0.0013736012 -0.00034776239 0)
(-0.0013164674 -0.00038475831 0)
(-0.0012264114 -0.00040571049 -1.0929426e-18)
(-0.0011271432 -0.00041573455 1.08145e-18)
(-0.00099951947 -0.00040614354 4.5806714e-23)
(-0.00085708297 -0.00038001847 -3.2152632e-23)
(-0.00068808488 -0.00033032846 -2.0812962e-18)
(-0.00049934987 -0.00025807115 0)
(-0.00028345676 -0.00015740911 0)
(-4.1641905e-05 -2.6685852e-05 1.987827e-18)
(0.000236257 0.00014188643 1.9564991e-18)
(0.00054172443 0.00034372118 -2.9362867e-23)
(0.00087986329 0.00058178759 -1.8978603e-18)
(0.0012452629 0.00085194282 -2.8561594e-23)
(0.0016419413 0.0011558832 5.6265669e-23)
(0.002065423 0.0014891393 -1.8182568e-18)
(0.0025190153 0.0018522865 1.793457e-18)
(0.0029971397 0.0022391541 0)
(0.0035020012 0.0026488808 3.4920555e-18)
(0.0040252568 0.0030723351 -1.7230973e-18)
(0.0045665108 0.0035058984 -3.8253588e-23)
(0.0051046957 0.0039310164 -1.6784149e-18)
(0.0056180298 0.0043376002 1.6552293e-18)
(0.0061183479 0.0047404823 -1.6304217e-18)
(0.0066148237 0.0051479665 1.2269027e-23)
(0.0071113492 0.0055642499 -1.5761077e-18)
(0.007615492 0.005996352 8.8963376e-23)
(0.0081295909 0.0064471999 1.515179e-18)
(0.008662869 0.0069255466 0)
(0.0092177411 0.0074348877 1.4469939e-18)
(0.0098098986 0.0079892131 0)
(0.01043993 0.0085913233 -1.3705132e-18)
(0.011139523 0.009269664 -1.328908e-18)
(0.011919952 0.010036529 0)
(0.012871637 0.010963851 4.650152e-24)
(0.014089565 0.012082628 2.75296e-22)
(0.015494375 0.013290574 -1.1305258e-18)
(0.017132899 0.014604137 -3.8324322e-22)
(0.018999865 0.015986742 -1.0098989e-18)
(0.021206019 0.017487233 1.857692e-24)
(0.023738698 0.019036238 0)
(0.026796559 0.020712635 0)
(0.030338406 0.022367543 6.7690679e-19)
(0.034712503 0.024079716 4.684382e-25)
(0.039587255 0.025394872 4.2244003e-19)
(0.045454613 0.026358013 -5.4294721e-19)
(0.051232502 0.026027095 9.4213914e-22)
(0.056833532 0.024154146 1.186069e-19)
(0.057759334 0.019367283 -1.8256131e-19)
(0.05485727 0.013846342 2.4072709e-19)
(0.047773322 0.0085939184 -1.5534494e-19)
(0.041061158 0.0048673721 2.0273829e-23)
(0.031321086 0.0021751607 0)
(0.026749664 0.00086080561 -2.8712971e-20)
(0.017600107 0.00014318071 8.4828284e-21)
(0.019121134 -9.3083694e-05 -8.3423117e-26)
(0.010318025 -4.3063417e-05 3.5583476e-21)
(0.03473819 0.00011872151 -4.9669224e-26)
(0.02544704 8.8665087e-05 3.2550094e-21)
(0.040384497 -0.00027551588 2.5200619e-21)
(0.032231196 -0.00097313976 2.2303964e-20)
(0.034753988 -0.002292323 -2.9827863e-20)
(0.02244094 -0.0025214633 0)
(0.014401045 -0.0024406881 -8.7195101e-20)
(-0.00029913393 0.00020205777 -7.016725e-23)
(-0.0078273656 0.0026898538 2.5023093e-19)
(-0.011594764 0.0049409124 0)
(-0.0095995689 0.0048623951 0)
(-0.0080803705 0.0046702697 5.6031957e-19)
(-0.0060900526 0.0038931631 5.5674764e-19)
(-0.0050616198 0.0035046087 -5.5655689e-19)
(-0.004320408 0.0031822965 -5.5434706e-19)
(-0.003921474 0.0030299582 -2.6552589e-25)
(-0.0035543688 0.002850005 -5.5694358e-19)
(-0.0033401996 0.0027546871 1.07141e-24)
(-0.0031080291 0.0026152261 -5.6521129e-19)
(-0.0029253796 0.0024936537 5.7146751e-19)
(-0.0027338783 0.0023449145 5.7882746e-19)
(-0.0025727264 0.0022061707 0)
(-0.002427207 0.0020675254 -5.9745238e-19)
(-0.0023278518 0.001960405 1.216409e-18)
(-0.0022637887 0.0018844695 9.4395131e-24)
(-0.0022245163 0.0018316683 -1.1939687e-23)
(-0.0022137027 0.0018043379 4.8697114e-24)
(-0.0022293191 0.001800077 6.4760994e-19)
(-0.0022723175 0.0018191397 -1.001621e-23)
(-0.0023453059 0.0018630992 -6.64945e-19)
(-0.0024467972 0.001930401 3.3287691e-24)
(-0.0025798379 0.0020231765 6.8100847e-19)
(-0.0027415749 0.0021390379 6.8864902e-19)
(-0.0029321351 0.0022780825 -6.9606912e-19)
(-0.0031458054 0.0024359636 7.033472e-19)
(-0.0033734495 0.0026057753 7.1053884e-19)
(-0.0035948794 0.0027686345 -7.180632e-19)
(-0.00381045 0.0029178339 2.2169028e-23)
(-0.0040250101 0.0030548283 -2.2451915e-23)
(-0.0042339679 0.0031744949 1.1375832e-23)
(-0.0044372526 0.0032752186 -7.570545e-19)
(-0.0046295225 0.0033515649 -1.1746284e-23)
(-0.0048075779 0.0033999714 1.1927337e-23)
(-0.0049656264 0.0034154183 1.2159313e-23)
(-0.0051009499 0.0033955268 -8.1109965e-19)
(-0.0052075753 0.0033363346 8.2690125e-19)
(-0.0052876888 0.0032398177 8.4318873e-19)
(-0.0053391114 0.00310573 8.6032997e-19)
(-0.0053885645 0.0029528422 -1.339976e-23)
(-0.0054354989 0.0027895549 -8.9467647e-19)
(-0.0054633668 0.0026102775 9.1116238e-19)
(-0.0054640463 0.0024135244 -1.4147565e-23)
(-0.0054394111 0.0022029722 8.2901981e-25)
(-0.0053717384 0.0019750733 5.8296338e-23)
(-0.0052817079 0.0017416082 -4.8372419e-19)
(-0.0051314426 0.0014944818 -4.8902205e-19)
(-0.0049809192 0.0012560895 0)
(-0.0047518147 0.0010105767 -4.9670398e-19)
(-0.0045947879 0.00079369001 4.9852663e-19)
(-0.0043432296 0.00057606142 4.9964521e-19)
(-0.0043618502 0.00040293616 -1.2459396e-19)
(-0.004295093 0.00022700551 4.1548186e-25)
(-0.0051547588 8.0789446e-05 3.0728351e-20)
(-0.0067821817 2.3194748e-05 -1.4887549e-23)
(-0.0079356019 1.9238922e-05 1.4886984e-23)
(-0.009055046 1.7195205e-05 0)
(-0.0099897882 1.5427333e-05 -1.474204e-23)
(-0.010880051 1.3962071e-05 2.0180252e-26)
(-0.011653319 1.2679667e-05 1.4721014e-23)
(-0.01238169 1.1598269e-05 -1.4713583e-23)
(-0.013033024 1.0660198e-05 -1.2055308e-26)
(-0.01364521 9.8558569e-06 1.4724977e-23)
(-0.014204345 9.153164e-06 0)
(-0.01473084 8.54463e-06 0)
(-0.015218904 7.998955e-06 0)
(-0.015679798 7.5210561e-06 0)
(-0.016111295 7.082412e-06 0)
(-0.016519738 6.6857077e-06 0)
(-0.016904415 6.3186654e-06 0)
(-0.017268953 5.9783458e-06 -1.5210403e-23)
(-0.017613227 5.6567676e-06 1.521021e-23)
(-0.017939361 5.3473758e-06 1.5396138e-23)
(-0.018247415 5.0639025e-06 -1.5395964e-23)
(-0.018538598 4.7786769e-06 0)
(-0.018813059 4.5038717e-06 0)
(-0.019071486 4.2352433e-06 0)
(-0.019314002 3.9730846e-06 1.5966563e-23)
(-0.01954097 3.7127777e-06 -1.5966432e-23)
(-0.019752533 3.44916e-06 0)
(-0.01994885 3.2055084e-06 1.637612e-23)
(-0.020130007 2.9487224e-06 1.470349e-25)
(-0.020296159 2.6969728e-06 -3.3197903e-23)
(-0.020447401 2.4476617e-06 1.6674863e-23)
(-0.020583913 2.201448e-06 0)
(-0.020705773 1.9589112e-06 0)
(-0.020813184 1.7123821e-06 0)
(-0.020906252 1.4690998e-06 1.7503716e-23)
(-0.020985077 1.2441889e-06 -8.6625591e-24)
(-0.021049921 1.0024139e-06 -8.8410977e-24)
(-0.02110086 7.8620956e-07 8.932297e-24)
(-0.021138174 5.4853218e-07 -9.1201761e-24)
(-0.021162034 3.2272709e-07 1.8336849e-23)
(-0.021172641 9.7276603e-08 -9.2166783e-24)
(-0.021170061 -1.2226115e-07 -9.4143651e-24)
(-0.021154378 -3.4007028e-07 9.4143647e-24)
(-0.021125814 -5.5417068e-07 0)
(-0.021084591 -7.6484966e-07 -9.7212838e-24)
(-0.021030958 -9.7110077e-07 9.7212983e-24)
(-0.020965167 -1.1736105e-06 0)
(-0.020887486 -1.3711775e-06 0)
(-0.020798196 -1.5643562e-06 0)
(-0.020697587 -1.7519784e-06 0)
(-0.020585957 -1.9348465e-06 1.0363737e-23)
(-0.02046361 -2.1121295e-06 -2.0837255e-23)
(-0.020330867 -2.2844914e-06 1.0473534e-23)
(-0.020188049 -2.4509612e-06 -1.0694501e-23)
(-0.020035486 -2.6123471e-06 1.0694553e-23)
(-0.019873511 -2.7675734e-06 0)
(-0.019702465 -2.9175755e-06 0)
(-0.019522691 -3.0615522e-06 0)
(-0.019334535 -3.1998455e-06 0)
(-0.019138364 -3.3315537e-06 0)
(-0.018934542 -3.4574414e-06 0)
(-0.018723438 -3.5768169e-06 5.7933978e-24)
(-0.018505417 -3.6905447e-06 -5.7934476e-24)
(-0.018280847 -3.7975718e-06 -2.9522341e-24)
(-0.018050093 -3.8988124e-06 -2.7613202e-26)
(-0.017813517 -3.9936345e-06 2.9799008e-24)
(-0.017571478 -4.082793e-06 -3.0348183e-24)
(-0.017324324 -4.1655024e-06 -2.7249964e-26)
(-0.017072414 -4.247028e-06 3.0621282e-24)
(-0.016816066 -4.3099191e-06 0)
(-0.016555608 -4.3832782e-06 -7.8575047e-25)
(-0.01629141 -4.4481148e-06 7.8575871e-25)
(-0.016023718 -4.4951261e-06 0)
(-0.015752962 -4.5477762e-06 -4.0278272e-25)
(-0.015479523 -4.590104e-06 4.0278709e-25)
(-0.015203679 -4.6326421e-06 0)
(-0.014925622 -4.6605002e-06 -1.6498023e-24)
(-0.014645742 -4.6922608e-06 1.649821e-24)
(-0.014364311 -4.7165505e-06 3.3499947e-24)
(-0.014081611 -4.7349276e-06 -3.3500297e-24)
(-0.013797925 -4.7503194e-06 0)
(-0.013513506 -4.7607799e-06 0)
(-0.013228605 -4.7663183e-06 0)
(-0.012943482 -4.7689221e-06 -6.942956e-24)
(-0.012658369 -4.7666419e-06 6.9430316e-24)
(-0.012373493 -4.7613243e-06 0)
(-0.012089083 -4.7515212e-06 0)
(-0.011805343 -4.7386743e-06 0)
(-0.011522493 -4.7223498e-06 0)
(-0.01124073 -4.7021379e-06 0)
(-0.010960265 -4.6792353e-06 0)
(-0.010681266 -4.6528548e-06 0)
(-0.010403924 -4.6235691e-06 0)
(-0.01012842 -4.5915448e-06 1.4774111e-23)
(-0.0098549208 -4.5564459e-06 -1.4774264e-23)
(-0.0095835937 -4.5184964e-06 0)
(-0.0093145776 -4.4786644e-06 -1.5017948e-23)
(-0.0090480343 -4.4364604e-06 1.5018097e-23)
(-0.0087840919 -4.3919529e-06 0)
(-0.0085228955 -4.3433876e-06 -1.5251357e-23)
(-0.0082645675 -4.2972665e-06 -7.5339716e-26)
(-0.0080092419 -4.2427394e-06 1.5326991e-23)
(-0.0077570199 -4.193232e-06 0)
(-0.0075080461 -4.1368596e-06 -1.5546523e-23)
(-0.0072623972 -4.0791735e-06 -7.0835288e-26)
(-0.0070202087 -4.0207245e-06 3.1305058e-23)
(-0.0067815471 -3.9605562e-06 -1.5687545e-23)
(-0.0065465684 -3.8991014e-06 0)
(-0.0063152929 -3.835968e-06 1.5890519e-23)
(-0.0060879152 -3.7702022e-06 6.5422867e-26)
(-0.0058643986 -3.7044126e-06 -4.7997434e-23)
(-0.0056449969 -3.6365605e-06 3.2041488e-23)
(-0.0054296084 -3.5660343e-06 0)
(-0.0052185547 -3.4913586e-06 0)
(-0.0050116577 -3.4266289e-06 -3.2536812e-23)