/*--------------------------------*- C++ -*----------------------------------*\
| =========                 |                                                 |
| \\      /  F ield         | OpenFOAM: The Open Source CFD Toolbox           |
|  \\    /   O peration     | Version:  2.4.0                                 |
|   \\  /    A nd           | Web:      www.OpenFOAM.org                      |
|    \\/     M anipulation  |                                                 |
\*---------------------------------------------------------------------------*/
FoamFile
{
    version     2.0;
    format      ascii;
    class       volScalarField;
    location    "360";
    object      nut;
}
// * * * * * * * * * * * * * * * * * * * * * * * * * * * * * * * * * * * * * //

dimensions      [0 2 -1 0 0 0 0];

internalField   nonuniform List<scalar> 
19650
(
0.014370859
0.014399134
0.014426911
0.014454203
0.014481005
0.014507307
0.014533094
0.01455835
0.014583057
0.014607199
0.014630757
0.014653718
0.014676063
0.014697778
0.014718843
0.014739241
0.01475895
0.014777951
0.014796228
0.014813765
0.01483055
0.014846571
0.014861815
0.01487627
0.014889921
0.014902756
0.014914763
0.014925937
0.014936274
0.014945776
0.014954446
0.014962289
0.014969311
0.014975522
0.01498095
0.014985623
0.014989814
0.014994491
0.014998307
0.015000992
0.015004274
0.015004438
0.015004655
0.015006542
0.015008387
0.015003046
0.014990844
0.014978668
0.014963734
0.014944284
0.014921851
0.014896149
0.014867349
0.014835761
0.014801835
0.014766097
0.014729217
0.0146918
0.014654518
0.014617917
0.014582991
0.014550938
0.014522789
0.014499529
0.01448213
0.014606961
0.014628622
0.014649848
0.01467061
0.014690889
0.014710668
0.014729926
0.014748644
0.014766803
0.014784384
0.014801367
0.014817736
0.014833473
0.014848561
0.014862983
0.01487672
0.014889753
0.014902066
0.014913643
0.014924469
0.014934533
0.014943826
0.014952339
0.01496006
0.014966981
0.014973092
0.014978388
0.014982867
0.014986534
0.014989396
0.014991466
0.014992757
0.014993287
0.014993082
0.014992193
0.014990739
0.014989451
0.014988711
0.014985477
0.014984092
0.014979438
0.014974062
0.014969192
0.014965936
0.014962471
0.014950323
0.014933254
0.014917946
0.01489954
0.014879063
0.014856897
0.014832648
0.014806476
0.014778644
0.014749589
0.014719682
0.014689489
0.014659659
0.014630793
0.014603368
0.014578342
0.014556853
0.014539862
0.014528287
0.014523024
0.014911398
0.014926195
0.014940544
0.014954423
0.014967814
0.014980698
0.014993055
0.015004863
0.015016102
0.015026751
0.015036792
0.015046204
0.015054971
0.015063073
0.015070494
0.015077214
0.015083218
0.015088487
0.015093005
0.015096761
0.015099741
0.015101938
0.01510334
0.015103938
0.015103718
0.015102672
0.015100801
0.015098111
0.015094611
0.015090317
0.015085247
0.015079422
0.015072866
0.015065611
0.01505769
0.015049581
0.015042125
0.015033067
0.015024922
0.015015278
0.015003913
0.014992651
0.014981732
0.014972601
0.014963109
0.01494376
0.01492091
0.01490052
0.014878847
0.014857045
0.014834491
0.014811075
0.014786943
0.014762314
0.014737632
0.014712898
0.014688953
0.01466625
0.014645371
0.014626735
0.014611253
0.014599994
0.014593855
0.014593648
0.0146002
0.015279503
0.015287371
0.015294775
0.015301694
0.015308111
0.015314005
0.015319356
0.015324144
0.015328348
0.015331948
0.015334924
0.015337258
0.01533893
0.015339921
0.015340215
0.015339793
0.015338639
0.015336734
0.015334065
0.015330617
0.015326376
0.015321331
0.015315469
0.015308768
0.015301188
0.015292731
0.015283417
0.015273264
0.015262293
0.015250525
0.015237985
0.015224703
0.01521071
0.015196036
0.015180864
0.015165956
0.015150936
0.015134368
0.015119119
0.015101038
0.015082729
0.015064579
0.015046804
0.015031064
0.015014872
0.014987906
0.014959131
0.01493302
0.014908104
0.01488418
0.014860692
0.014837574
0.014814931
0.014792981
0.014771994
0.014751935
0.014733684
0.014717596
0.014704205
0.014693877
0.014687471
0.014685964
0.014690208
0.014700863
0.014718658
0.015703835
0.015704855
0.015705399
0.015705451
0.015704993
0.015704004
0.01570246
0.015700341
0.015697625
0.015694289
0.015690316
0.015685684
0.015680374
0.015674367
0.015667645
0.015660192
0.01565199
0.015643025
0.015633281
0.015622745
0.015611404
0.015599245
0.015586237
0.015572329
0.015557547
0.015541898
0.015525394
0.015508052
0.015489891
0.015470933
0.015451208
0.015430749
0.015409592
0.015387799
0.015365868
0.015344329
0.015321068
0.015299174
0.015274433
0.015248983
0.015223655
0.015198167
0.015173202
0.015150481
0.01512731
0.015091887
0.015054329
0.01502225
0.014993782
0.014966984
0.014941872
0.014918383
0.014896597
0.014876644
0.014858552
0.014842724
0.014829562
0.014819487
0.014812992
0.014810371
0.014812407
0.01481997
0.01483379
0.014854432
0.014882471
0.016175089
0.01616944
0.016163364
0.016156816
0.016149764
0.016142183
0.016134042
0.016125316
0.01611598
0.016106013
0.016095391
0.016084096
0.016072105
0.016059398
0.016045959
0.016031772
0.016016822
0.016001094
0.015984578
0.015967261
0.015949139
0.015930205
0.015910459
0.015889907
0.015868565
0.015846354
0.015823297
0.01579942
0.01577474
0.015749279
0.015723062
0.015696117
0.015668465
0.015640327
0.015612321
0.015583702
0.015554355
0.015524664
0.015492962
0.015461093
0.015429069
0.015396835
0.01536527
0.015335946
0.01530388
0.015260162
0.015215971
0.015177109
0.015143302
0.015112559
0.01508476
0.015059883
0.015038086
0.015018963
0.01500308
0.014990656
0.014981903
0.014977146
0.014976784
0.014981001
0.014990461
0.015005911
0.015027962
0.015057027
0.015093533
0.016722625
0.016713002
0.016702971
0.016692439
0.01668115
0.016669447
0.016657301
0.016644666
0.016631515
0.016617817
0.016603541
0.016588657
0.016573141
0.016556971
0.016540126
0.016522585
0.016504325
0.016485325
0.016465571
0.01644505
0.016423747
0.016401652
0.016378754
0.016355049
0.016330534
0.016305214
0.01627912
0.016252304
0.016224753
0.016196459
0.01616742
0.016137626
0.016107012
0.016075616
0.016043484
0.016010652
0.015977168
0.015943427
0.015909789
0.015874452
0.015839987
0.015802904
0.015765215
0.015727508
0.015689503
0.015651371
0.015614051
0.015579196
0.015540139
0.015489218
0.01543935
0.015394815
0.015356253
0.015321789
0.015291306
0.015264903
0.015242419
0.015223994
0.015209794
0.015200029
0.015194797
0.015194281
0.01519874
0.015208205
0.01522319
0.015244402
0.015272185
0.015306945
0.015348979
0.017310982
0.017297085
0.017282797
0.0172679
0.017252675
0.017237083
0.017221066
0.017204545
0.017187497
0.017169909
0.017151776
0.017133085
0.017113811
0.01709392
0.017073382
0.01705218
0.017030298
0.017007716
0.016984411
0.01696036
0.016935544
0.016909951
0.016883572
0.016856395
0.016828408
0.016799603
0.016769976
0.016739528
0.016708266
0.016676206
0.016643367
0.016609786
0.01657556
0.01654068
0.016505143
0.016468968
0.016432154
0.016394642
0.016356454
0.016317798
0.016279093
0.016239771
0.016199797
0.016158947
0.016116613
0.016074093
0.01603141
0.015988464
0.015945509
0.015903768
0.01586463
0.015816874
0.015763605
0.015710314
0.015662267
0.015621074
0.015584981
0.015553823
0.015527697
0.015505514
0.015488449
0.015476112
0.015468572
0.015465857
0.015468051
0.015475311
0.015487569
0.015505277
0.015528978
0.0155591
0.015596008
0.015639977
0.017865708
0.017847367
0.017828741
0.017809832
0.017790458
0.017770559
0.017750174
0.017729338
0.017708012
0.017686131
0.017663677
0.017640663
0.017617087
0.017592912
0.017568092
0.017542599
0.017516425
0.017489566
0.017462005
0.017433713
0.017404664
0.017374845
0.017344249
0.017312872
0.017280702
0.017247726
0.017213933
0.017179321
0.017143893
0.01710766
0.017070632
0.017032823
0.016994258
0.016954976
0.016915012
0.016874426
0.016833341
0.016791786
0.016749767
0.016707294
0.016664566
0.016621844
0.016577784
0.016534337
0.016488772
0.016442766
0.016396788
0.016350609
0.016304292
0.016258237
0.016213159
0.016165688
0.016115752
0.016059635
0.016003576
0.015952774
0.015909334
0.015871663
0.015839496
0.015811658
0.015789167
0.015771617
0.015758851
0.015750904
0.015747746
0.01574943
0.0157561
0.015767696
0.015784758
0.015807647
0.015837025
0.015873272
0.015916807
0.018328548
0.018306461
0.018283959
0.018261155
0.018237777
0.018213762
0.018189313
0.018164499
0.018139188
0.018113251
0.018086687
0.018059572
0.018031933
0.018003716
0.017974846
0.017945303
0.017915108
0.01788427
0.017852763
0.017820543
0.017787579
0.017753865
0.017719411
0.017684218
0.017648272
0.017611553
0.017574047
0.017535758
0.017496696
0.017456877
0.017416308
0.017374996
0.017332956
0.017290215
0.017246817
0.017202813
0.017158266
0.017113251
0.017067907
0.017022351
0.016976794
0.016931093
0.016884411
0.016837399
0.016789161
0.016740799
0.016692439
0.016643976
0.016595469
0.016547075
0.016499425
0.016453676
0.016406812
0.016348765
0.016288807
0.016232881
0.016184274
0.016141433
0.01610306
0.016070395
0.016042972
0.01602054
0.016003051
0.015990606
0.015983236
0.015981076
0.015984344
0.015992981
0.016007693
0.01602885
0.016057164
0.016093035
0.016136934
0.018759337
0.01873502
0.018709664
0.01868334
0.018656134
0.018627762
0.018598889
0.018569766
0.018540094
0.018509671
0.018478647
0.018447205
0.018415346
0.018382905
0.018349754
0.018315912
0.018281471
0.018246468
0.018210863
0.018174574
0.018137565
0.018099853
0.018061474
0.018022435
0.017982708
0.017942254
0.017901058
0.017859136
0.017816515
0.017773217
0.017729246
0.017684598
0.017639279
0.017593315
0.017546748
0.017499628
0.017452001
0.017403909
0.0173554
0.017306694
0.017258082
0.017208749
0.017159647
0.017109006
0.017058031
0.017007106
0.016956113
0.016905111
0.016854181
0.016803422
0.016753374
0.016705366
0.016656411
0.016599967
0.016541425
0.016484349
0.016433692
0.016388041
0.016345062
0.016307106
0.016274401
0.016246931
0.016224797
0.016208227
0.016197368
0.016192467
0.016193921
0.016201687
0.016216053
0.01623778
0.016267585
0.016305692
0.016352431
0.019213769
0.019188488
0.019162592
0.019135445
0.019106503
0.019075808
0.019043877
0.019010873
0.018976987
0.018941799
0.018905693
0.018869258
0.018832453
0.01879492
0.018756506
0.018717432
0.018677883
0.018637875
0.018597281
0.018555947
0.018513846
0.018471065
0.018427698
0.018383763
0.018339199
0.018293931
0.018247948
0.018201297
0.018154033
0.018106184
0.018057743
0.018008682
0.017959
0.017908731
0.017857932
0.017806657
0.017754941
0.0177028
0.017650253
0.017597475
0.017544604
0.017490803
0.017437467
0.017382888
0.017328244
0.01727371
0.017219161
0.017164689
0.017110361
0.01705625
0.01700293
0.016951896
0.016900405
0.016842092
0.016782155
0.016723278
0.016671234
0.016624587
0.016582134
0.016544279
0.016511398
0.016483711
0.016461478
0.016445059
0.016434707
0.016430708
0.016433324
0.016442913
0.01645973
0.016484266
0.016517233
0.016559059
0.016609936
0.019556579
0.019573093
0.019589701
0.019597783
0.01957071
0.019541035
0.019510465
0.019478413
0.019444409
0.019408213
0.01937015
0.019330844
0.019290342
0.019248859
0.019205817
0.019161777
0.019117285
0.019072329
0.019026605
0.018979889
0.018932298
0.018884074
0.018835346
0.018786106
0.01873619
0.018685464
0.018633957
0.018581794
0.018529086
0.018475877
0.018422125
0.018367762
0.018312782
0.018257248
0.018201254
0.018144869
0.018088124
0.018031013
0.017973567
0.017915865
0.01785785
0.017799412
0.017740503
0.017681168
0.017621944
0.01756286
0.017503907
0.017445147
0.017386649
0.017328465
0.017271159
0.017216348
0.01716147
0.017100002
0.017037302
0.016975877
0.016922014
0.016874307
0.01683169
0.016794339
0.01676248
0.016736245
0.01671583
0.016701564
0.016693677
0.01669244
0.016698096
0.016710881
0.016731336
0.016759863
0.016797045
0.016843352
0.016899032
0.019824403
0.019837225
0.019850165
0.019863213
0.019876371
0.019889636
0.019903
0.019916447
0.019896871
0.019864625
0.019830634
0.019794868
0.019757238
0.019717265
0.019674774
0.019630096
0.019583822
0.01953621
0.019487371
0.019437015
0.01938523
0.019332593
0.01927942
0.019225604
0.019170811
0.019114886
0.019058065
0.019000606
0.018942641
0.018884196
0.018825144
0.018765335
0.018704787
0.018643648
0.018582079
0.018520188
0.018457989
0.018395422
0.018332501
0.018269283
0.018205613
0.01814168
0.018077064
0.01801239
0.017947854
0.01788345
0.01781927
0.017755433
0.01769201
0.017629044
0.017567075
0.017507803
0.017448788
0.017383423
0.017317231
0.017252598
0.017196299
0.017146967
0.017103464
0.017065941
0.017034543
0.017009329
0.016990452
0.016978198
0.016972759
0.016974396
0.016983418
0.016999889
0.01702437
0.01705738
0.017099492
0.017150966
0.017212049
0.020045676
0.020054982
0.020064451
0.020074071
0.020083829
0.020093716
0.020103726
0.020113853
0.020124088
0.020134424
0.020144862
0.020155403
0.020166043
0.020176767
0.020147623
0.020111792
0.020074196
0.020034196
0.019991885
0.019947085
0.019899502
0.019849223
0.019796688
0.019742525
0.019686826
0.019629799
0.019570998
0.019510744
0.01944958
0.019387757
0.019325261
0.019261803
0.01919718
0.019131585
0.01906536
0.018998705
0.018931732
0.018864402
0.018796514
0.018728057
0.018659195
0.018589768
0.018520142
0.01844996
0.01837984
0.018309801
0.018239797
0.018169995
0.018100603
0.018031722
0.017963392
0.017896132
0.017831715
0.017767825
0.017697759
0.0176273
0.017558791
0.01749946
0.017447917
0.017402966
0.017364741
0.017333328
0.017308739
0.017291081
0.0172806
0.017277453
0.017281871
0.017294151
0.017314327
0.017342971
0.017380614
0.017427803
0.01748471
0.01755158
0.020222746
0.02022896
0.020235345
0.020241898
0.020248614
0.020255487
0.020262512
0.020269682
0.020276991
0.020284431
0.020291994
0.020299677
0.020307478
0.020315393
0.020323414
0.02033153
0.020339749
0.020348074
0.020356506
0.020365037
0.020348371
0.020310757
0.020270388
0.020227421
0.020181607
0.020133214
0.020081954
0.020027607
0.019970316
0.019910473
0.0198487
0.019785278
0.019720345
0.019653753
0.019585486
0.019516139
0.019446059
0.019375455
0.019304128
0.019231704
0.019158262
0.019084314
0.019009644
0.018935062
0.018859886
0.018784738
0.018709484
0.018634062
0.018558747
0.018483813
0.018409422
0.018335628
0.01826291
0.018193066
0.018123888
0.018048593
0.01797332
0.017900452
0.017837664
0.017783506
0.017736721
0.017697432
0.017665683
0.017641431
0.017624736
0.017615803
0.017614752
0.017621793
0.017637218
0.017661064
0.017693948
0.01773644
0.017789049
0.017851871
0.017925243
0.020350007
0.020353398
0.020356986
0.020360768
0.020364738
0.020368893
0.020373227
0.020377736
0.020382414
0.020387257
0.020392258
0.020397413
0.020402715
0.020408161
0.020413745
0.020419461
0.020425302
0.020431266
0.020437355
0.020443568
0.020449899
0.020456334
0.020462874
0.020469529
0.020476304
0.0204832
0.020490211
0.020463488
0.020421762
0.02037725
0.020329603
0.020278672
0.020224801
0.020167916
0.020107719
0.020044266
0.019977824
0.019908952
0.019838387
0.019766062
0.019692493
0.019617044
0.019540385
0.019462707
0.019384601
0.019305801
0.019226569
0.019146656
0.019066237
0.018985924
0.018906023
0.018826668
0.018747904
0.018670097
0.018594997
0.018520525
0.018439896
0.018359687
0.018282395
0.018216125
0.018159308
0.018110595
0.018070083
0.018037767
0.018013557
0.017997484
0.01798974
0.017990453
0.017999861
0.0180183
0.018045871
0.018083306
0.018131274
0.018190205
0.018260065
0.018341635
0.020424708
0.020424998
0.020425495
0.020426197
0.020427101
0.020428211
0.020429525
0.020431041
0.020432758
0.020434672
0.020436782
0.020439083
0.020441574
0.020444251
0.02044711
0.020450148
0.02045336
0.020456743
0.020460292
0.020464004
0.020467874
0.020471897
0.020476072
0.020480396
0.020484865
0.020489472
0.020494215
0.020499096
0.020504118
0.020509282
0.02051458
0.020519991
0.020525522
0.020531185
0.020536989
0.020542936
0.020549024
0.020531682
0.020487126
0.020438961
0.020387569
0.020332416
0.020273871
0.020212335
0.020147376
0.020078902
0.020007066
0.019932231
0.019854816
0.019775813
0.019695462
0.01961428
0.019531775
0.019448786
0.019365755
0.019282856
0.019200256
0.019118103
0.019038144
0.018958647
0.01887307
0.018788383
0.01870712
0.018637709
0.018578365
0.018527647
0.018485649
0.01845237
0.018427755
0.018411891
0.018405051
0.018407452
0.018419428
0.018441413
0.018473607
0.018516946
0.018572349
0.018640162
0.018720154
0.018813776
0.020455448
0.020453787
0.020452327
0.02045107
0.020450014
0.020449161
0.020448512
0.020448066
0.020447825
0.020447787
0.020447952
0.02044832
0.02044889
0.020449661
0.02045063
0.020451798
0.020453161
0.020454718
0.020456465
0.020458402
0.020460525
0.020462831
0.020465319
0.020467985
0.020470827
0.020473842
0.020477028
0.020480382
0.020483905
0.020487596
0.020491452
0.020495465
0.020499634
0.020503963
0.020508458
0.02051312
0.020517945
0.020522911
0.02052801
0.02053326
0.020538674
0.020544259
0.020550018
0.020555945
0.02051362
0.020462554
0.020408257
0.020349868
0.020287337
0.020221465
0.020152675
0.020080597
0.020005332
0.019927209
0.019846611
0.019764332
0.019681158
0.019597474
0.01951619
0.019434725
0.019346554
0.019259036
0.019174721
0.019102449
0.019040354
0.018987159
0.018943194
0.018908646
0.018883635
0.018868397
0.018863312
0.018868666
0.018884826
0.018912234
0.018951112
0.019002628
0.019068134
0.019148258
0.019243519
0.01935506
0.020433721
0.020430385
0.020427241
0.020424293
0.020421542
0.020418989
0.020416636
0.020414485
0.020412537
0.020410795
0.020409259
0.020407931
0.020406812
0.020405902
0.020405202
0.020404712
0.020404434
0.020404365
0.020404507
0.020404858
0.020405419
0.020406188
0.020407164
0.020408345
0.020409732
0.020411322
0.020413114
0.020415108
0.020417302
0.020419696
0.020422287
0.020425074
0.020428056
0.020431232
0.020434604
0.020438173
0.020441938
0.02044589
0.020450026
0.020454349
0.020458868
0.020463586
0.020468506
0.020473617
0.020478872
0.020484293
0.020489897
0.020495684
0.020501647
0.020507787
0.020505062
0.02045367
0.020397628
0.020338601
0.020275758
0.020209462
0.020140284
0.020069031
0.01999735
0.019923559
0.019840217
0.019754546
0.019669687
0.01959597
0.019532076
0.019477373
0.019432766
0.019398777
0.019375715
0.019363872
0.019363571
0.019374937
0.019398097
0.019433201
0.019480119
0.019539634
0.01961276
0.019699566
0.019797661
0.019904829
0.020362663
0.020357878
0.020353277
0.020348862
0.020344637
0.020340604
0.020336766
0.020333126
0.020329687
0.020326452
0.020323423
0.020320603
0.020317995
0.020315601
0.020313423
0.020311463
0.020309724
0.020308207
0.020306914
0.020305846
0.020305003
0.020304388
0.020304001
0.020303843
0.020303913
0.020304213
0.020304743
0.020305502
0.020306492
0.020307711
0.020309161
0.02031084
0.020312749
0.020314889
0.020317258
0.020319858
0.020322688
0.020325747
0.020329034
0.02033255
0.020336295
0.020340274
0.020344487
0.02034893
0.020353589
0.020358465
0.020363562
0.020368874
0.020374398
0.020380133
0.020386057
0.020392123
0.020398365
0.020404804
0.020411451
0.020418312
0.020425378
0.02042931
0.020379365
0.02032532
0.020261165
0.020191985
0.020120662
0.020058384
0.020004312
0.01995817
0.019921052
0.019893542
0.019875931
0.019868405
0.019871116
0.01988397
0.019906818
0.019939448
0.019981091
0.020031502
0.020092084
0.020163777
0.020197208
0.020159684
0.020245366
0.020239319
0.020233447
0.020227752
0.020222238
0.02021691
0.020211771
0.020206825
0.020202076
0.020197527
0.020193183
0.020189048
0.020185124
0.020181417
0.020177929
0.020174664
0.020171625
0.020168816
0.02016624
0.020163899
0.020161798
0.020159937
0.02015832
0.020156949
0.020155827
0.020154954
0.020154334
0.020153967
0.020153856
0.020154002
0.020154406
0.02015507
0.020155994
0.020157181
0.020158631
0.020160344
0.020162323
0.020164567
0.020167078
0.020169856
0.020172903
0.020176219
0.020179806
0.020183663
0.020187787
0.020192176
0.020196828
0.020201732
0.020206887
0.020212295
0.020217947
0.020223829
0.020229943
0.020236299
0.020242903
0.02024976
0.020256857
0.020264144
0.020271476
0.020278737
0.020285411
0.020290287
0.020292508
0.020292065
0.020288963
0.020283197
0.020274759
0.020263637
0.020249815
0.020233276
0.020213996
0.020191954
0.020167125
0.020139483
0.020109008
0.0200757
0.020039627
0.020000879
0.01995945
0.019915342
0.020084824
0.020077669
0.020070679
0.020063859
0.020057212
0.020050744
0.020044459
0.020038362
0.020032457
0.020026749
0.020021243
0.020015944
0.020010856
0.020005984
0.020001333
0.019996907
0.019992711
0.01998875
0.019985028
0.019981548
0.019978317
0.019975336
0.019972612
0.019970146
0.019967943
0.019966007
0.019964341
0.019962947
0.01996183
0.019960992
0.019960436
0.019960165
0.019960181
0.019960487
0.019961085
0.019961978
0.019963167
0.019964654
0.019966443
0.019968533
0.019970928
0.019973629
0.019976637
0.019979954
0.019983579
0.019987513
0.019991751
0.019996279
0.020001102
0.020006221
0.020011635
0.020017338
0.02002333
0.020029612
0.020036186
0.020043053
0.020050201
0.02005759
0.02006512
0.020072625
0.020079428
0.020083986
0.020085424
0.020083731
0.020078921
0.020071008
0.020059999
0.020045901
0.020028717
0.020008446
0.019985083
0.019958624
0.019929061
0.019896382
0.019860585
0.019821686
0.019779777
0.019734984
0.019687391
0.01963708
0.019892203
0.019883916
0.019875781
0.019867804
0.019859988
0.019852339
0.019844862
0.019837563
0.019830446
0.019823518
0.019816783
0.019810248
0.019803916
0.019797795
0.019791889
0.019786205
0.019780747
0.019775521
0.019770532
0.019765787
0.01976129
0.019757047
0.019753062
0.019749342
0.019745891
0.019742714
0.019739816
0.019737202
0.019734876
0.019732842
0.019731106
0.019729671
0.019728542
0.019727722
0.019727215
0.019727025
0.019727156
0.01972761
0.019728391
0.019729503
0.019730948
0.01973273
0.01973485
0.019737311
0.019740117
0.019743268
0.019746765
0.019750605
0.019754772
0.019759276
0.019764121
0.019769304
0.019774827
0.019780688
0.019786888
0.019793426
0.0198003
0.019807498
0.019814987
0.019822679
0.019830389
0.019837286
0.019841513
0.019842182
0.019839283
0.019832841
0.019822882
0.019809431
0.019792511
0.019772144
0.019748351
0.019721143
0.019690536
0.01965654
0.019619161
0.019578414
0.019534332
0.019487038
0.019436695
0.019383435
0.019327386
0.01966386
0.01965457
0.019645419
0.019636413
0.019627556
0.019618855
0.019610316
0.019601943
0.019593743
0.019585721
0.019577884
0.019570237
0.019562787
0.019555539
0.0195485
0.019541675
0.019535072
0.019528696
0.019522553
0.01951665
0.019510992
0.019505587
0.019500441
0.019495559
0.019490947
0.019486613
0.019482561
0.019478797
0.019475328
0.01947216
0.019469297
0.019466746
0.019464511
0.019462599
0.019461014
0.019459762
0.019458847
0.019458274
0.019458047
0.019458172
0.019458653
0.019459494
0.019460699
0.019462272
0.019464215
0.019466534
0.019469231
0.019472306
0.019475758
0.019479572
0.019483764
0.019488335
0.019493288
0.019498622
0.01950434
0.01951044
0.019516923
0.019523786
0.019531017
0.019538585
0.019546407
0.019554284
0.019561242
0.019565128
0.019565047
0.019560994
0.019553003
0.019541112
0.01952536
0.019505789
0.01948244
0.019455351
0.019424553
0.019390082
0.019351967
0.01931023
0.019264905
0.019216045
0.019163803
0.019108374
0.019049927
0.018988619
0.019402185
0.019392001
0.019381944
0.01937202
0.019362235
0.019352594
0.019343104
0.01933377
0.019324598
0.019315596
0.019306769
0.019298123
0.019289665
0.019281401
0.019273339
0.019265483
0.019257843
0.019250423
0.01924323
0.019236273
0.019229556
0.019223088
0.019216876
0.019210925
0.019205243
0.019199837
0.019194713
0.01918988
0.019185342
0.019181107
0.019177183
0.019173574
0.019170289
0.019167332
0.019164712
0.019162433
0.019160502
0.019158926
0.019157709
0.019156858
0.019156379
0.019156277
0.019156556
0.019157224
0.019158283
0.01915974
0.019161598
0.019163862
0.019166532
0.019169603
0.019173077
0.019176962
0.019181262
0.019185979
0.019191117
0.019196676
0.019202659
0.019209064
0.019215891
0.019223128
0.019230746
0.019238662
0.019246669
0.019253655
0.019257194
0.019256386
0.019251231
0.019241775
0.019228067
0.019210163
0.019188117
0.01916199
0.019131838
0.019097711
0.019059664
0.019017744
0.018971992
0.018922459
0.018869218
0.01881245
0.018752383
0.018689212
0.018623122
0.019098567
0.0190877
0.019076955
0.019066337
0.019055854
0.019045511
0.019035315
0.019025271
0.019015387
0.01900567
0.018996125
0.018986759
0.018977579
0.018968593
0.018959807
0.018951227
0.018942862
0.018934718
0.018926802
0.018919122
0.018911685
0.018904498
0.018897569
0.018890905
0.018884514
0.018878403
0.018872579
0.018867051
0.018861825
0.018856908
0.01885231
0.018848036
0.018844094
0.018840492
0.018837236
0.018834334
0.018831792
0.018829619
0.01882782
0.018826402
0.018825372
0.018824736
0.018824502
0.018824674
0.018825259
0.018826263
0.018827691
0.018829547
0.018831833
0.018834541
0.018837686
0.018841272
0.018845304
0.018849785
0.01885472
0.01886011
0.018865959
0.018872267
0.018879033
0.018886249
0.018893885
0.018901861
0.018909959
0.018916944
0.018920132
0.018918621
0.018912421
0.018901586
0.018886179
0.018866267
0.018841924
0.018813225
0.018780243
0.018743048
0.018701713
0.018656302
0.018606873
0.018553497
0.018496265
0.018435385
0.018371114
0.018303671
0.018233265
0.01876502
0.018753538
0.018742173
0.018730934
0.018719825
0.018708853
0.018698026
0.018687349
0.01867683
0.018666475
0.018656291
0.018646286
0.018636466
0.018626838
0.01861741
0.018608189
0.018599183
0.018590398
0.018581843
0.018573525
0.018565451
0.01855763
0.01855007
0.018542777
0.01853576
0.018529027
0.018522586
0.018516444
0.01851061
0.018505092
0.018499898
0.018495035
0.018490512
0.018486337
0.018482517
0.01847906
0.018475975
0.018473268
0.018470948
0.018469021
0.018467496
0.01846638
0.01846568
0.018465402
0.018465554
0.018466143
0.018467175
0.018468654
0.018470584
0.018472953
0.018475785
0.018479084
0.018482856
0.018487104
0.018491834
0.01849705
0.018502754
0.018508949
0.018515635
0.018522804
0.018530431
0.018538434
0.01854659
0.018553546
0.018556382
0.018554198
0.018547012
0.018534888
0.018517901
0.018496131
0.018469667
0.018438602
0.018403025
0.018363022
0.018318684
0.018270093
0.018217325
0.018160465
0.018099624
0.018035036
0.017966985
0.017895711
0.017821445
0.018404088
0.018392051
0.018380131
0.018368333
0.018356665
0.018345132
0.018333741
0.018322501
0.018311416
0.018300496
0.018289746
0.018279174
0.018268787
0.018258593
0.018248599
0.018238813
0.018229242
0.018219894
0.018210777
0.018201898
0.018193266
0.018184889
0.018176774
0.01816893
0.018161365
0.018154088
0.018147106
0.018140428
0.018134062
0.018128017
0.018122301
0.018116922
0.01811189
0.018107212
0.018102896
0.018098952
0.018095387
0.01809221
0.018089429
0.018087052
0.018085088
0.018083544
0.018082428
0.018081748
0.018081511
0.018081726
0.018082398
0.018083535
0.018085138
0.018087196
0.018089737
0.018092767
0.018096292
0.018100317
0.018104847
0.018109887
0.018115442
0.018121514
0.018128105
0.018135209
0.018142802
0.018150805
0.018158989
0.018165894
0.018168382
0.01816556
0.018157453
0.018144133
0.018125688
0.018102212
0.018073807
0.018040582
0.018002643
0.017960092
0.017913037
0.017861576
0.0178058
0.017745813
0.01768174
0.017613842
0.017542426
0.017467754
0.017390073
0.018030917
0.018018277
0.018005746
0.017993328
0.017981033
0.017968866
0.017956834
0.017944944
0.017933203
0.01792162
0.017910199
0.01789895
0.017887879
0.017876995
0.017866303
0.017855813
0.017845532
0.017835467
0.017825627
0.017816019
0.017806652
0.017797534
0.017788673
0.017780077
0.017771754
0.017763714
0.017755964
0.017748513
0.01774137
0.017734543
0.017728041
0.017721873
0.017716048
0.017710573
0.017705459
0.017700713
0.017696345
0.017692364
0.017688777
0.017685595
0.017682825
0.017680476
0.017678556
0.017677075
0.01767604
0.01767546
0.017675343
0.017675696
0.017676525
0.017677835
0.017679612
0.017681889
0.017684672
0.017687967
0.017691781
0.01769612
0.01770099
0.017706396
0.017712342
0.017718829
0.017725855
0.017733396
0.017741378
0.017749565
0.017756404
0.017758555
0.017755134
0.017746174
0.017731757
0.017711981
0.017686954
0.01765679
0.017621615
0.017581548
0.017536709
0.01748722
0.017433196
0.017374743
0.01731198
0.017245048
0.017174232
0.01709986
0.017022212
0.016941554
0.017636335
0.017623153
0.017610073
0.0175971
0.017584242
0.017571506
0.017558898
0.017546426
0.017534097
0.017521917
0.017509895
0.017498038
0.017486352
0.017474846
0.017463528
0.017452404
0.017441483
0.017430772
0.01742028
0.017410014
0.017399983
0.017390195
0.017380658
0.01737138
0.017362371
0.017353637
0.017345189
0.017337034
0.017329181
0.01732164
0.017314419
0.017307526
0.017300971
0.017294763
0.017288911
0.017283423
0.01727831
0.017273579
0.01726924
0.017265303
0.017261775
0.017258667
0.017255987
0.017253744
0.017251946
0.017250604
0.017249725
0.017249317
0.01724939
0.01724995
0.017251001
0.017252529
0.017254569
0.017257129
0.017260216
0.017263837
0.017267999
0.017272708
0.017277969
0.017283789
0.01729017
0.017297109
0.017304587
0.01731253
0.017320703
0.017327463
0.017329293
0.017325318
0.01731558
0.017300168
0.017279192
0.017252771
0.017221034
0.017184119
0.017142162
0.017095294
0.017043655
0.016987375
0.016926572
0.016861381
0.016791959
0.016718611
0.016641685
0.016561478
0.016478272
0.017222641
0.017208975
0.017195404
0.017181935
0.017168575
0.01715533
0.017142208
0.017129216
0.01711636
0.017103648
0.017091087
0.017078686
0.01706645
0.017054388
0.017042507
0.017030816
0.017019321
0.01700803
0.016996953
0.016986095
0.016975467
0.016965076
0.016954929
0.016945037
0.016935406
0.016926046
0.016916965
0.016908171
0.016899674
0.016891483
0.016883606
0.016876052
0.016868831
0.01686195
0.01685542
0.01684925
0.016843449
0.016838025
0.016832989
0.016828349
0.016824116
0.016820297
0.016816903
0.016813942
0.016811424
0.016809359
0.016807754
0.01680662
0.016805964
0.016805796
0.016806123
0.016806949
0.01680826
0.016810093
0.016812456
0.016815357
0.016818804
0.016822804
0.016827363
0.016832489
0.016838188
0.016844462
0.016851311
0.016858717
0.016866612
0.016874756
0.016881432
0.01688296
0.016878481
0.016868042
0.016851743
0.016829701
0.016802048
0.016768924
0.016730481
0.016686869
0.016638234
0.016584728
0.016526495
0.016463668
0.016396395
0.016324847
0.016249347
0.016170263
0.016087906
0.016002572
0.016792121
0.016778026
0.01676402
0.016750111
0.016736305
0.016722609
0.01670903
0.016695576
0.016682252
0.016669068
0.016656029
0.016643143
0.016630418
0.016617861
0.016605479
0.016593282
0.016581275
0.016569467
0.016557866
0.01654648
0.016535317
0.016524385
0.016513692
0.016503248
0.016493059