/*--------------------------------*- C++ -*----------------------------------*\
| =========                 |                                                 |
| \\      /  F ield         | OpenFOAM: The Open Source CFD Toolbox           |
|  \\    /   O peration     | Version:  2.4.0                                 |
|   \\  /    A nd           | Web:      www.OpenFOAM.org                      |
|    \\/     M anipulation  |                                                 |
\*---------------------------------------------------------------------------*/
FoamFile
{
    version     2.0;
    format      ascii;
    class       volScalarField;
    location    "360";
    object      omega;
}
// * * * * * * * * * * * * * * * * * * * * * * * * * * * * * * * * * * * * * //

dimensions      [0 0 -1 0 0 0 0];

internalField   nonuniform List<scalar> 
19650
(
1.8838294
1.8800959
1.8764606
1.8729293
1.869506
1.8661937
1.8629948
1.8599112
1.8569447
1.8540972
1.85137
1.848765
1.8462836
1.8439276
1.8416987
1.8395986
1.8376292
1.8357925
1.8340904
1.832525
1.8310986
1.8298135
1.8286718
1.827676
1.8268285
1.8261316
1.8255879
1.8251999
1.8249706
1.8249028
1.8249996
1.8252643
1.8257001
1.8263105
1.8270986
1.8280671
1.8292166
1.8305443
1.8320398
1.8336628
1.8354727
1.8374752
1.8396687
1.8420447
1.844577
1.8469545
1.8483485
1.8484532
1.8474264
1.8452626
1.8419621
1.8375782
1.8321467
1.8257025
1.8182713
1.8099246
1.8006885
1.7905785
1.7796165
1.7678269
1.7552537
1.7419748
1.7280772
1.7136383
1.6987283
1.8009931
1.7975976
1.7943212
1.7911605
1.7881143
1.7851822
1.7823645
1.7796622
1.777076
1.7746074
1.7722575
1.7700279
1.7679201
1.7659357
1.7640765
1.7623443
1.760741
1.7592686
1.7579293
1.7567253
1.7556588
1.7547322
1.7539477
1.7533077
1.7528141
1.7524689
1.7522747
1.7522341
1.7523499
1.7526254
1.7530637
1.7536684
1.754443
1.755391
1.7565157
1.7578192
1.759301
1.7609554
1.7627539
1.7647127
1.7668684
1.7692221
1.7717732
1.7745147
1.7774237
1.7801894
1.7818856
1.7822901
1.7815102
1.7794848
1.7762804
1.7719426
1.7665168
1.7600494
1.7525845
1.7441997
1.7349122
1.7247503
1.7137412
1.7019301
1.6893643
1.6761282
1.6623131
1.6480041
1.6332716
1.7181368
1.7150754
1.712127
1.7092908
1.7065663
1.7039535
1.7014527
1.6990645
1.6967896
1.6946292
1.6925845
1.6906567
1.6888475
1.6871583
1.6855909
1.6841472
1.682829
1.6816384
1.6805775
1.6796486
1.678854
1.678196
1.6776764
1.6772967
1.6770572
1.6769593
1.6770054
1.6771987
1.6775427
1.6780408
1.6786968
1.6795146
1.6804978
1.6816503
1.682975
1.6844735
1.6861442
1.6879788
1.6899416
1.6920988
1.6944539
1.6970093
1.6997658
1.7027187
1.7058475
1.7088313
1.7107689
1.7114569
1.7108656
1.7090109
1.7059582
1.7017559
1.6964562
1.6901169
1.6828024
1.6745649
1.6654193
1.6554148
1.6445943
1.6330043
1.620697
1.6077596
1.594286
1.580362
1.5660588
1.6364941
1.6337363
1.6310798
1.6285256
1.6260748
1.6237285
1.6214878
1.6193539
1.6173279
1.6154112
1.6136049
1.6119106
1.6103298
1.608864
1.607515
1.6062846
1.6051748
1.6041875
1.6033249
1.6025892
1.6019826
1.601507
1.6011631
1.6009489
1.6008566
1.600889
1.6010529
1.6013537
1.6017961
1.6023844
1.6031227
1.604015
1.6050652
1.6062767
1.6076519
1.609191
1.610888
1.6127152
1.614727
1.61693
1.619328
1.621925
1.6247242
1.6277262
1.6309273
1.6340602
1.6362501
1.6371996
1.6368275
1.6351996
1.6323728
1.6284042
1.623355
1.6172999
1.6103067
1.6023697
1.5935541
1.5839096
1.5734837
1.5623263
1.5504921
1.5380668
1.5251529
1.5118242
1.4981537
1.5571612
1.5546572
1.5522425
1.5499201
1.5476926
1.5455619
1.5435295
1.541597
1.5397657
1.5380369
1.5364122
1.5348928
1.5334805
1.5321766
1.530983
1.5299014
1.5289336
1.5280818
1.5273479
1.526734
1.5262423
1.5258739
1.5256245
1.525484
1.5254617
1.525562
1.5257893
1.5261475
1.5266395
1.5272686
1.5280381
1.5289517
1.5300126
1.5312241
1.5325876
1.5341017
1.5357548
1.5375486
1.5395231
1.541681
1.544026
1.5465627
1.5492953
1.5522318
1.5554023
1.5584686
1.5605829
1.5615048
1.5612143
1.5597614
1.5571771
1.5535044
1.5488043
1.5431667
1.5366003
1.529109
1.5207698
1.511637
1.5017611
1.4911937
1.4799901
1.4682345
1.45603
1.4434468
1.4305546
1.4809765
1.4786501
1.4764161
1.4742738
1.472223
1.4702642
1.4683979
1.4666249
1.4649462
1.4633628
1.461876
1.460487
1.4591973
1.4580083
1.4569217
1.4559391
1.4550624
1.4542934
1.4536341
1.4530867
1.4526533
1.452336
1.4521373
1.4520619
1.4521174
1.4522858
1.4525732
1.4529844
1.4535213
1.4541862
1.4549814
1.4559097
1.456974
1.4581768
1.4595192
1.4609982
1.462595
1.4643515
1.4662723
1.4683622
1.4706259
1.473068
1.4756934
1.4785106
1.4815422
1.4843743
1.486206
1.486913
1.4865323
1.4850945
1.4826207
1.4791512
1.4747664
1.4694782
1.4633088
1.4562991
1.4484967
1.4399493
1.430704
1.4208107
1.4103226
1.3993239
1.3879199
1.3761706
1.3641414
1.417305
1.4149626
1.4126847
1.4104596
1.4082323
1.4060912
1.4040347
1.402062
1.4001729
1.3983676
1.3966464
1.39501
1.3934593
1.3919953
1.3906191
1.389332
1.3881353
1.3870304
1.3860189
1.3851023
1.3842824
1.383561
1.38294
1.3824214
1.3820076
1.3817017
1.3815121
1.3814525
1.3815204
1.3817171
1.3820424
1.3824925
1.3830496
1.3837176
1.3845023
1.3854079
1.3864374
1.387593
1.3888743
1.3902722
1.391798
1.3934721
1.3952987
1.3972822
1.3994269
1.4017375
1.4042187
1.406878
1.4097301
1.4123101
1.413966
1.4145621
1.4141183
1.4126687
1.4102548
1.4069299
1.40278
1.3977558
1.3919215
1.3853275
1.378014
1.3700229
1.3613965
1.35218
1.3424173
1.3322128
1.3216304
1.3107398
1.2995992
1.3544103
1.3520882
1.3498116
1.3475392
1.345345
1.3432237
1.3411696
1.3391742
1.3372417
1.3353752
1.3335769
1.3318488
1.3301921
1.3286084
1.3270988
1.3256647
1.3243074
1.323028
1.3218279
1.3207086
1.3196714
1.3187179
1.3178496
1.3170682
1.3163754
1.315773
1.3152629
1.3148471
1.314528
1.3143091
1.3141955
1.314194
1.3143251
1.3145856
1.314973
1.3154874
1.316126
1.3168715
1.3177233
1.3186869
1.3197646
1.3209554
1.3222477
1.3236725
1.3252337
1.3269352
1.3287812
1.330776
1.3329239
1.3352327
1.337735
1.3403203
1.3426219
1.3440674
1.3445375
1.3440477
1.3426295
1.3403312
1.3372317
1.3332843
1.3285397
1.3230461
1.316851
1.3100009
1.3025397
1.294509
1.2859511
1.2769075
1.2674756
1.2577003
1.2476557
1.2373853
1.290171
1.2879593
1.2858093
1.2837162
1.2816739
1.2796859
1.2777543
1.2758799
1.2740625
1.2723027
1.2706015
1.2689601
1.2673795
1.2658611
1.2644061
1.2630158
1.2616914
1.2604343
1.2592456
1.2581268
1.2570793
1.2561044
1.2552036
1.2543783
1.2536302
1.2529608
1.2523718
1.251865
1.2514421
1.2511052
1.2508565
1.2506987
1.2506355
1.2506719
1.2508127
1.2510642
1.2514462
1.2519588
1.2526
1.2533656
1.2542378
1.2552103
1.2562798
1.2574536
1.2587492
1.2601702
1.2617204
1.2634036
1.2652232
1.2671806
1.269271
1.2714602
1.2736148
1.2755694
1.276765
1.2770929
1.2765554
1.2751787
1.2730341
1.2701042
1.2663704
1.2619139
1.2567773
1.2510035
1.2446356
1.2377149
1.2302809
1.2223737
1.2140486
1.2053565
1.196361
1.1871144
1.1776684
1.22726
1.225272
1.2233296
1.2214338
1.219585
1.217784
1.2160317
1.2143288
1.2126761
1.2110744
1.2095246
1.2080275
1.2065841
1.2051953
1.2038621
1.2025858
1.2013675
1.2002082
1.1991092
1.1980717
1.1970969
1.1961863
1.195341
1.1945626
1.1938524
1.1932119
1.1926426
1.1921462
1.1917242
1.1913784
1.1911106
1.1909228
1.1908172
1.1907964
1.1908635
1.1910222
1.1912782
1.1916391
1.1921244
1.1927375
1.1934746
1.1943242
1.1952593
1.1963036
1.1974609
1.198735
1.2001293
1.2016471
1.2032908
1.2050602
1.2069435
1.2088742
1.210799
1.212478
1.213409
1.2135259
1.2128471
1.2114068
1.2092769
1.2064196
1.2028812
1.1986921
1.1938873
1.188504
1.1825819
1.1761598
1.1692759
1.1619566
1.1542836
1.1462769
1.1379964
1.1294847
1.1208011
1.1677889
1.1660011
1.1642516
1.1625411
1.1608711
1.1592425
1.1576563
1.1561131
1.1546138
1.1531594
1.1517506
1.1503884
1.1490734
1.1478066
1.1465892
1.145422
1.144306
1.1432423
1.1422319
1.1412759
1.1403756
1.1395321
1.1387466
1.1380203
1.1373546
1.1367507
1.1362101
1.1357343
1.1353246
1.1349825
1.1347097
1.1345078
1.1343786
1.134324
1.1343459
1.1344469
1.1346296
1.1348979
1.1352573
1.1357155
1.1362903
1.1369829
1.137772
1.1386747
1.1396914
1.1408234
1.1420722
1.1434392
1.1449257
1.1465321
1.1482539
1.1500714
1.1519334
1.1535484
1.1544407
1.1545669
1.1539499
1.1526115
1.150531
1.1477681
1.1443623
1.1403557
1.1357899
1.1307056
1.1251433
1.1191433
1.1127591
1.1060018
1.0988933
1.0914901
1.083853
1.0759994
1.0679702
1.1116701
1.1100755
1.1085072
1.1069688
1.1054663
1.1039994
1.1025684
1.1011739
1.0998171
1.0984995
1.0972219
1.0959852
1.0947902
1.0936377
1.0925289
1.0914646
1.0904458
1.0894732
1.088548
1.0876712
1.0868438
1.086067
1.0853418
1.0846692
1.0840505
1.0834869
1.0829797
1.0825301
1.0821394
1.0818089
1.08154
1.0813342
1.081193
1.081118
1.0811107
1.081173
1.0813067
1.081514
1.0817977
1.0821612
1.0826099
1.083151
1.0838132
1.0845914
1.0854803
1.086481
1.0875944
1.0888211
1.0901619
1.0916171
1.093184
1.0948509
1.0965834
1.0981504
1.0990877
1.0993401
1.098912
1.097809
1.0959905
1.0935093
1.0904155
1.0867553
1.0825715
1.077904
1.0727908
1.0672667
1.0613601
1.0551194
1.0485415
1.0416723
1.0345609
1.0272576
1.0197949
1.0591911
1.0578001
1.056428
1.0550768
1.0537478
1.0524421
1.0511613
1.0499074
1.0486863
1.0474995
1.046347
1.0452292
1.0441469
1.0431016
1.0420945
1.0411266
1.0401987
1.0393116
1.0384664
1.037664
1.0369054
1.0361917
1.0355237
1.0349024
1.034329
1.0338046
1.0333303
1.0329072
1.0325365
1.0322193
1.0319569
1.0317505
1.0316016
1.0315115
1.0314815
1.0315131
1.0316077
1.0317671
1.031993
1.0322875
1.0326529
1.0330922
1.033637
1.0342892
1.0350507
1.0359221
1.0369032
1.0379889
1.0391812
1.0404816
1.0418891
1.0433967
1.0449769
1.0464176
1.0472841
1.0475325
1.0471648
1.0461899
1.0446149
1.042459
1.0397482
1.0365129
1.0327851
1.0285974
1.0239828
1.0189702
1.013572
1.0078455
1.0018195
0.99551766
0.98898012
0.98227449
0.97543718
1.0109112
1.0097124
1.0085329
1.0073711
1.0062233
1.0050916
1.0039778
1.0028837
1.0018106
1.0007596
0.99973185
0.99872884
0.99775264
0.9968093
0.99589923
0.99502254
0.99417972
0.99337156
0.99259929
0.99186432
0.99116779
0.99051064
0.98989368
0.9893178
0.98878401
0.98829345
0.98784718
0.9874462
0.98709153
0.98678418
0.98652531
0.98631615
0.98615789
0.98605172
0.98599884
0.98600044
0.98605781
0.98617235
0.98634551
0.98657878
0.98687355
0.98722999
0.98766342
0.98818389
0.9887988
0.98950971
0.9903184
0.99122813
0.99224059
0.99335703
0.9945774
0.99589659
0.99728954
0.99856327
0.99931596
0.99951676
0.99916565
0.99826984
0.99683915
0.9948895
0.99244171
0.98952063
0.98615301
0.98236668
0.97819078
0.97365317
0.96877985
0.96360153
0.95814763
0.95245829
0.9465764
0.9405419
0.9343905
0.96840632
0.96733694
0.96628688
0.96525622
0.96424482
0.96325219
0.96227824
0.96132299
0.96038608
0.95946388
0.95855684
0.95766676
0.95679507
0.95594331
0.95511252
0.95430365
0.95351784
0.95275639
0.95202102
0.95131599
0.95064376
0.9500044
0.94939833
0.94882617
0.94828882
0.94778766
0.94732408
0.94689922
0.94651406
0.94616949
0.94586643
0.94560589
0.94538904
0.94521704
0.94509098
0.94501192
0.94498093
0.94499916
0.94506789
0.9451884
0.94536193
0.94558969
0.94587255
0.9462196
0.94663408
0.94711964
0.94767967
0.94831803
0.94904338
0.94985763
0.95076252
0.95175893
0.95284405
0.95400041
0.95505411
0.9556412
0.95574323
0.95535936
0.95449564
0.95316206
0.95137237
0.94914381
0.94649735
0.94345575
0.94004302
0.93628484
0.93220649
0.92783255
0.92318968
0.91830552
0.91321853
0.90796852
0.90259006
0.89711464
0.93045526
0.92947711
0.92851949
0.92758211
0.92666479
0.92576736
0.92488969
0.9240316
0.9231929
0.92237336
0.9215724
0.92078976
0.92002544
0.9192795
0.91855158
0.91783785
0.91713963
0.91645857
0.91579593
0.915153
0.91453084
0.91393033
0.91335245
0.91279835
0.91226927
0.9117669
0.91129595
0.91085783
0.9104527
0.91008106
0.90974363
0.90944128
0.90917531
0.90894721
0.90875825
0.9086095
0.90850195
0.9084365
0.9084142
0.90843616
0.90850364
0.90861772
0.90877932
0.90899154
0.90925959
0.90958522
0.90997045
0.91041748
0.91092868
0.91150708
0.91215537
0.9128759
0.91367016
0.9145367
0.91546289
0.91629475
0.91670985
0.91669758
0.91625869
0.91539984
0.91413123
0.9124661
0.9104204
0.90801256
0.90526241
0.90219075
0.89881992
0.89517204
0.8912689
0.88713346
0.8827899
0.87827235
0.87361592
0.86885055
0.86400344
0.89673612
0.89583512
0.89495257
0.89408873
0.89324375
0.89241773
0.89161074
0.89082285
0.89005406
0.88930435
0.88857368
0.887862
0.8871692
0.88649516
0.88583977
0.88520284
0.88458381
0.88398256
0.88339919
0.88283386
0.8822865
0.8817548
0.88123819
0.88073826
0.88025637
0.87979362
0.87935122
0.8789301
0.87853112
0.87815525
0.8778036
0.87747736
0.87717804
0.87690929
0.87667393
0.87647209
0.87630424
0.87617109
0.87607345
0.87601238
0.87598948
0.87600616
0.87606346
0.87616142
0.87630691
0.87650108
0.87674525
0.87704092
0.87738972
0.87779329
0.87825339
0.87877185
0.87935035
0.87998999
0.88068907
0.88143424
0.88208994
0.88237279
0.88227576
0.88180131
0.88095707
0.87975371
0.87820435
0.87632423
0.8741302
0.87164
0.86887204
0.86584588
0.86258084
0.85909587
0.85541093
0.85154703
0.84753395
0.84340249
0.83917893
0.83488724
0.86939054
0.86850622
0.86763806
0.86678623
0.86595113
0.86513265
0.86433101
0.86354645
0.86277919
0.8620294
0.86129727
0.86058295
0.85988656
0.85920821
0.858548
0.857906
0.85728227
0.85667683
0.85608966
0.85552075
0.85497006
0.85443754
0.85392312
0.85342676
0.85294836
0.8524876
0.85204423
0.85161837
0.85121025
0.85082017
0.85044804
0.8500912
0.84974999
0.84942595
0.84912037
0.84883431
0.84856889
0.84832513
0.84810387
0.84790606
0.84773277
0.84758514
0.84746438
0.84737227
0.84731413
0.84729037
0.84730118
0.84734679
0.84743279
0.84756015
0.84773019
0.84794473
0.84820536
0.84851347
0.84887045
0.84927756
0.84973596
0.85024631
0.85080677
0.85140505
0.85192144
0.8521066
0.85195523
0.85147012
0.85065878
0.84953137
0.84810013
0.84637901
0.84438358
0.84213004
0.83963502
0.83691612
0.83399066
0.83087564
0.82758889
0.82414915
0.82058281
0.81691714
0.81317571
0.80938033
0.84173571
0.84093
0.84013879
0.83936231
0.83860081
0.83785445
0.83712344
0.83640798
0.83570827
0.83502451
0.83435689
0.8337056
0.83307081
0.8324527
0.83185141
0.83126709
0.83069989
0.8301499
0.82961722
0.82910194
0.82860415
0.82812391
0.82766126
0.82721619
0.82678874
0.8263789
0.82598667
0.82561204
0.82525502
0.82491564
0.82459389
0.82428941
0.82400212
0.82373219
0.82347996
0.82324581
0.82302986
0.82283037
0.82264645
0.82247969
0.82233145
0.82220289
0.82209503
0.82200905
0.82194585
0.82190634
0.82189157
0.82190265
0.82194439
0.82201828
0.82212694
0.82227526
0.82246341
0.8226919
0.82296161
0.82327351
0.82362851
0.82402726
0.82446863
0.82494177
0.82534134
0.82544843
0.82525882
0.82477516
0.82400429
0.82295543
0.82163968
0.82006974
0.81825978
0.8162246
0.81397945
0.81154043
0.80892341
0.80614394
0.80321834
0.80016365
0.79700348
0.79376234
0.79046213
0.78712358
0.8171187
0.8163843
0.81566293
0.81495479
0.81426009
0.81357901
0.81291176
0.81225854
0.81161953
0.81099495
0.81038497
0.8097898
0.80920962
0.80864462
0.80809498
0.80756088
0.80704248
0.80653995
0.80605344
0.80558309
0.80512904
0.80469142
0.80427035
0.80386591
0.8034782
0.80310732
0.80275336
0.80241638
0.80209643
0.80179356
0.80150782
0.80123923
0.80098783
0.80075367
0.80053682
0.80033737
0.80015539
0.79999069
0.79984307
0.79971273
0.79960004
0.79950546
0.7994294
0.79937186
0.79932968
0.79930426
0.7992972
0.79930988
0.79934642
0.79940803
0.79949601
0.79961143
0.79975544
0.79992927
0.80013422
0.80037157
0.80064261
0.80094892
0.80129318
0.8016644
0.80196921
0.80201544
0.80179952
0.80132414
0.80059583
0.79962325
0.79841682
0.79698838
0.79535112
0.79351876
0.79150541
0.78932589
0.78699475
0.78452624
0.78193518
0.77923703
0.77645285
0.7736046
0.77071419
0.76780178
0.79518789
0.7945195
0.79386276
0.79321784
0.79258491
0.79196418
0.7913558
0.79075998
0.7901769
0.78960674
0.78904969
0.78850594
0.78797568
0.78745908
0.78695634
0.78646765
0.78599317
0.7855331
0.78508759
0.78465683
0.78424098
0.78384021
0.78345467
0.78308449
0.78272983
0.78239082
0.7820676
0.7817603
0.78146902
0.78119387
0.78093494
0.78069235
0.78046621
0.78025662
0.78006364
0.77988735
0.77972783
0.77958515
0.77945938
0.77935059
0.77925891
0.77918448
0.77912746
0.77908793
0.77906552
0.7790603
0.77907268
0.77910332
0.7791553
0.77922911
0.77932425
0.77943831
0.77957321
0.77973065
0.77991202
0.78011859
0.78035145
0.78061142
0.78089736
0.78120054
0.78143913
0.7814451
0.78121578
0.78075589
0.78007292
0.77917587
0.77807509
0.77678199
0.77530899
0.77366881
0.77187435
0.76993902
0.76787584
0.76569752
0.76341714
0.76104834
0.75860957
0.7561196
0.75359407
0.75104692
0.7756633
0.77505682
0.77446068
0.77387503
0.77330003
0.77273585
0.77218265
0.77164061
0.77110989
0.77059066
0.7700831
0.76958739
0.7691037
0.7686322
0.76817308
0.76772651
0.76729268
0.76687175
0.76646392
0.76606935
0.76568823
0.76532072
0.764967
0.76462723
0.76430159
0.76399022
0.7636933
0.76341099
0.76314342
0.76289073
0.76265308
0.7624306
0.76222345
0.76203175
0.76185563
0.76169519
0.76155055
0.76142184
0.76130918
0.76121271
0.76113253
0.76106874
0.76102144
0.76099076
0.76097677
0.76097959
0.76099942
0.76103674
0.76109392
0.76117116
0.76126854
0.76138578
0.76152313
0.76168109
0.76186029
0.76206142
0.76228498
0.7625305
0.76279319
0.76306635
0.76327818
0.76328058
0.76307129
0.76265562
0.76204122
0.76123693
0.76025268
0.7590992
0.75778799
0.75633075
0.75473924
0.75302556
0.75120149
0.74927841
0.74726807
0.74518261
0.74303844
0.74085183
0.73863369
0.73639378
0.75832231
0.75777433
0.75723546
0.75670583
0.75618559
0.75567489
0.75517387
0.75468268
0.75420148
0.75373041
0.75326965
0.75281934
0.75237965
0.75195074
0.75153278
0.75112593
0.75073036
0.75034625
0.74997375
0.74961305
0.74926432
0.74892772
0.74860344
0.74829164
0.7479925
0.74770618
0.74743287
0.74717272
0.7469259
0.74669258
0.74647291
0.74626707
0.74607521
0.74589749
0.74573407
0.74558508
0.74545068
0.745331
0.74522622
0.74513648
0.74506191
0.74500265
0.74495881
0.74493053
0.74491797
0.74492128
0.74494073
0.74497684
0.74503154
0.74510498
0.7451973
0.74530862
0.7454391
0.74558896
0.74575847
0.74594791
0.7461575
0.74638696
0.74663416
0.74689176
0.74709538
0.74711301
0.74694257
0.74658801
0.74605588
0.74535411
0.74449167
0.74347835
0.74232466
0.74104129
0.73963902
0.73812895
0.7365219
0.73482833
0.73305906
0.73122518
0.72934144
0.7274226
0.7254806
0.72352611
0.74348773
0.74298743
0.74249497
0.74201046
0.74153403
0.7410658
0.7406059
0.74015447
0.73971162
0.73927751
0.73885225
0.738436
0.73802889
0.73763107
0.73724268
0.73686387
0.7364948
0.73613561
0.73578647
0.73544752
0.73511894
0.73480087
0.7344935
0.73419698
0.73391147
0.73363715
0.73337418
0.73312274
0.73288299
0.7326551
0.73243924
0.73223558
0.73204429
0.73186554
0.73169951
0.73154635
0.73140623
0.7312793
0.73116574
0.73106573
0.73097941
0.73090696
0.73084851
0.73080423
0.73077425
0.73075876
0.73075794
0.73077209
0.7308019
0.73084894
0.73091336
0.73099531
0.73109499
0.73121258
0.73134824
0.73150215
0.73167446
0.73186527
0.73207437
0.73230027
0.73253645
0.7327257
0.73275099
0.73261131
0.73230978
0.73185198
0.73124481
0.73049623
0.72961501
0.72861063
0.72749281
0.72627136
0.72495644
0.72355796
0.72208554
0.7205491
0.71895881
0.71732799
0.71567
0.71399609
0.71231647
0.73041632
0.72996319
0.72951673
0.72907705
0.72864426
0.72821845
0.72779974
0.72738823
0.72698404
0.72658727
0.72619805
0.72581648
0.7254427
0.72507682
0.72471896
0.72436926
0.72402785
0.72369485
0.72337042
0.72305467
0.72274777
0.72244984
0.72216105
0.72188153
0.72161145
0.72135095
0.72110019
0.72085933
0.72062854
0.72040797
0.72019778
0.71999815
0.71980923
0.71963121
0.71946424
0.71930849
0.71916415
0.71903136
0.71891031
0.71880117
0.7187041
0.71861929
0.7185469
0.7184871
0.71844005
0.71840592
0.71838488
0.71837714
0.71838299
0.71840338
0.71843951
0.71849156
0.71855968
0.71864408
0.71874494
0.71886244
0.71899673
0.71914796
0.71931619
0.71950126
0.71970194
0.7199126
0.72008288
0.72011011
0.71999454
0.71973874
0.71934748
0.71882678
0.71818365
0.7174259
0.71656204
0.71560082
0.71455115
0.71342227
0.71222324
0.71096289
0.70965031
0.70829482
0.70690839
0.70550307
0.70408909
0.70267576
0.71899911
0.71859255
0.71819161
0.71779639
0.71740696
0.71702342
0.71664584
0.71627432
0.71590894
0.7155498
0.715197
0.71485062
0.71451076
0.71417754
0.71385104
0.71353138
0.71321867
0.71291302
0.71261454
0.71232335
0.71203957
0.71176333
0.71149476
0.71123397
0.71098111
0.71073631
0.71049972
0.71027146
0.7100517
0.70984057
0.70963822
0.70944481
0.70926049
0.70908543
0.70891977
0.70876368
0.70861733
0.70848088
0.70835449
0.70823834
0.70813259
0.70803742
0.70795299
0.70787949
0.70781708
0.70776594
0.70772623
0.70769813
0.70768183
0.70767743
0.70768667
0.70771004
0.70774772
0.70779992
0.70786682
0.70794863
0.70804553
0.70815769
0.70828525
0.70842832
0.70858676
0.70875956
0.70894189
0.70908999
0.70911491
0.70901827
0.70880223
0.70847089
0.7080295
0.70748425
0.70684206
0.70611054
0.70529754
0.70441112
0.70345966
0.7024514
0.70139443
0.70029707
0.69916781
0.69801741
0.69685658
0.69569452
0.69453958
0.70878879
0.7084328
0.70808155
0.70773511
0.70739354
0.70705692
0.70672531
0.70639878
0.7060774
0.70576125
0.70545039
0.70514491
0.70484489
0.70455041
0.70426155
0.7039784
0.70370105
0.7034296
0.70316414
0.70290476
0.70265157
0.70240468
0.7021642
0.70193023
0.70170289
0.70148229
0.70126857
0.70106184
0.70086224
0.70066989
0.70048493
0.70030749
0.70013772
0.69997577
0.69982177
0.69967588
0.69953825
0.69940904
0.6992884
0.69917649
0.69907348
0.69897954
0.69889482
0.6988195
0.69875375
0.69869774
0.69865164
0.69861563
0.69858988
0.69857453
0.69857147
0.69858091
0.69860305
0.69863807
0.69868619
0.6987476
0.69882249
0.69891104
0.69901342
0.69912973
0.69925991
0.69940314
0.69955535
0.69967908
0.69969863
0.69961705
0.69943611
0.69915936
0.69879138
0.69833761
0.6978042
0.69719791
0.69652579
0.69579509
0.69501337
0.69418813
0.69332676
0.69243686
0.69152615
0.6906042
0.68968047
0.68876312
0.68785956
0.70017155
0.69986371
0.69955978
0.69925982
0.69896387
0.69867199
0.69838421
0.69810059
0.69782118
0.69754604
0.69727523
0.6970088
0.69674681
0.69648933
0.69623643
0.69598816
0.69574461
0.69550585
0.69527195
0.69504299
0.69481905
0.69460023
0.69438661
0.69417828
0.69397535
0.6937779
0.69358604
0.69339988
0.69321953
0.6930451
0.69287671
0.69271448
0.69255854
0.69240901
0.69226602
0.69212972
0.69200023
0.6918777
0.69176228
0.69165412
0.69155335
0.69146015
0.69137467
0.69129707
0.69122751
0.69116616
0.69111318
0.69106875
0.69103308
0.6910064
0.69099041
0.69098528
0.6909912
0.69100838
0.69103701
0.69107728
0.6911294
0.69119355
0.6912699
0.69135858
0.69145958
0.69157227
0.69169327
0.69179125
0.69180331
0.6917339
0.69158453
0.69135822
0.69105896
0.69069153
0.69026134
0.6897744
0.68923701
0.68865569
0.68803724
0.68738846
0.68671609
0.68602704
0.68532836
0.68462844
0.68393553
0.6832568
0.68259875
0.69308894
0.692827
0.6925682
0.69231257
0.69206012
0.69181091
0.69156495
0.69132228
0.69108293
0.69084695
0.69061437
0.69038522
0.69015956
0.68993742
0.68971886
0.68950392
0.68929265
0.68908512
0.68888137
0.68868147
0.68848548
0.68829347
0.68810551
0.68792167
0.68774203
0.68756666
0.68739566
0.68722912
0.68706711
0.68690974
0.68675711
0.68660931
0.68646647
0.68632868
0.68619606
0.68606873
0.68594682
0.68583044
0.68571974
0.68561484
0.68551588
0.685423
0.68533636
0.68525609
0.68518236
0.68511531
0.68505511
0.68500193
0.68495599
0.6849177
0.68488843
0.68486839
0.68485776
0.68485673
0.6848655
0.68488427
0.68491323
0.68495257
0.68500247
0.68506308
0.68513444
0.68521608
0.6853053
0.68537669
0.68537978
0.68532049
0.68520006
0.68502105
0.68478689
0.68450175
0.6841704
0.68379814
0.68339057
0.68295353
0.68249313
0.68201551
0.68152681
0.68103332
0.68054142
0.68005839
0.67959133
0.67914644
0.67872932
0.68771576
0.68749525
0.68727713
0.68706141
0.68684809
0.6866372
0.68642874
0.68622273
0.68601918
0.6858181
0.68561953
0.68542347
0.68522995
0.68503899
0.68485062
0.68466486
0.68448176
0.68430133
0.68412363
0.68394867
0.68377652
0.68360721
0.68344078
0.6832773
0.68311681
0.68295937
0.68280505
0.6826539
0.682506
0.68236142
0.68222024
0.68208253
0.68194838
0.68181789
0.68169113
0.68156821
0.68144923
0.6813343
0.68122352
0.68111701
0.68101489
0.68091727
0.6808243
0.68073609
0.68065279
0.68057453
0.68050146
0.68043373
0.6803715
0.68031502
0.68026484
0.68022205
0.68018686
0.68015945
0.68014
0.68012872
0.68012578
0.68013138
0.68014573
0.68016899
0.68020134
0.68024285
0.68029319
0.68035033
0.68039463
0.68038777
0.68033715
0.68024374
0.68010969
0.67993793
0.67973205
0.67949621
0.67923506
0.67895356
0.67865692
0.67835058
0.6780401
0.67773104
0.67742913
0.6771401
0.6768702
0.67662538
0.67641091
0.67623157
0.68371323
0.68353361
0.6833557
0.6831795
0.68300499
0.68283217
0.68266103
0.68249156
0.68232377
0.68215764
0.68199319
0.6818304
0.68166928
0.68150984
0.68135207
0.68119599
0.68104161
0.68088893
0.68073798
0.68058878
0.68044133
0.68029566
0.68015181
0.68000979
0.67986964
0.6797314
0.6795951
0.67946078
0.6793285
0.6791983
0.67907023
0.67894435
0.67882073
0.67869942
0.6785805
0.67846405
0.67835013
0.67823884
0.67813027
0.67802449
0.67792162
0.67782175
0.67772499
0.67763144
0.67754124
0.67745449
0.67737133
0.67729188
0.67721628
0.6771447
0.67707739
0.67701503
0.67695848
0.67690792
0.67686352
0.67682548
0.67679396
0.67676917
0.6767513
0.67674052
0.67673704
0.67674102
0.67675257
0.67677152
0.67679642
0.67681331
0.67679582
0.67675284
0.6766851
0.67659435
0.67648305
0.67635425
0.67621154
0.67605896
0.67590086
0.67574185
0.67558679
0.67544065
0.67530849
0.67519547
0.67510677
0.67504759
0.6750228
0.67503679
0.67509348
0.68105964
0.68092042
0.68078231
0.68064527
0.68050927
0.68037429
0.68024031
0.68010729
0.67997523
0.67984409
0.67971386
0.67958451
0.67945603
0.6793284
0.67920161
0.67907565
0.6789505
0.67882616
0.67870262
0.67857987
0.67845792
0.67833677
0.67821641
0.67809687
0.67797814
0.67786024
0.67774318
0.67762699
0.67751169
0.67739731
0.67728387
0.67717141
0.67705997
0.67694959
0.67684031
0.6767322
0.6766253
0.67651967
0.67641539
0.67631251
0.67621111
0.67611128
0.67601309
0.67591664
0.67582202
0.67572934
0.67563869
0.67555018
0.67546394
0.6753801
0.67529879
0.67522031
0.67514544
0.67507483
0.67500863
0.67494701
0.67489015
0.67483822
0.67479141
0.6747499
0.67471387
0.67468353
0.67465904
0.67464055
0.674628
0.67462054
0.67460978
0.67458118
0.67454514
0.67450215
0.6744536
0.67440147
0.67434832
0.67429719
0.67425155
0.67421517
0.67419211
0.67418665
0.67420324
0.67424645
0.67432095
0.67443135
0.67458187
0.67477632
0.67501821
0.67531069
0.67974148
0.67964228
0.67954361
0.67944545
0.67934774
0.67925044
0.67915351
0.6790569
0.67896057
0.67886449
0.67876861
0.6786729
0.67857731
0.67848182
0.67838638
0.67829097
0.67819556
0.67810011
0.6780046
0.67790901
0.67781331
0.67771748
0.67762151
0.67752538
0.67742907
0.67733259
0.67723592
0.67713907
0.67704202
0.67694479
0.67684739
0.67674982
0.67665209
0.67655424
0.67645629
0.67635825
0.67626017
0.67616208
0.67606401
0.67596603
0.67586818
0.67577051
0.67567309
0.67557598
0.67547927
0.67538301
0.67528731
0.67519224
0.67509791
0.67500441
0.67491187
0.67482042
0.67473034
0.67464259
0.67455755
0.67447537
0.67439622
0.67432026
0.67424765
0.67417857
0.67411321
0.67405174
0.67399436
0.67394124
0.67389255
0.67384836
0.67380836
0.67376971
0.67372965
0.67370007
0.67368128
0.67367426
0.67368058
0.67370232
0.67374199
0.6738025
0.67388709
0.67399929
0.67414284
0.67432169
0.67453996
0.67480185
0.67511145
0.67547201
0.67588631
0.67635701
0.67688647
0.68437557
0.6842536
0.68413286
0.68401339
0.68389523
0.68377841
0.68366296
0.68354893
0.68343633
0.68332519
0.68321554
0.6831074
0.68300078
0.68289571
0.68279219
0.68269023
0.68258985
0.68249105
0.68239382
0.68229817
0.6822041
0.68211159
0.68202064
0.68193124
0.68184337
0.68175701
0.68167215
0.68158876
0.68150681
0.68142629
0.68134716
0.68126938
0.68119292
0.68111776
0.68104384
0.68097112
0.68089958
0.68082915
0.68075979
0.68069146
0.68062411
0.68055768
0.68049212
0.68042739
0.68036341
0.68030014
0.68023752
0.68017549
0.680114
0.68005297
0.67999235
0.67993209
0.67987211
0.67981236
0.67975278
0.6796933
0.67963385
0.67957439
0.67951484
0.67945514
0.67939524
0.67933507
0.67927458
0.67921369
0.67915237
0.67909054
0.67902815
0.67896515
0.67890149
0.6788371
0.67877195
0.67870598
0.67863915
0.6785714
0.67850271
0.67843302
0.6783623
0.67829051
0.67821762
0.6781436
0.67806842
0.67799206
0.67791449
0.6778357
0.67775567
0.67767439
0.67759185
0.67750805
0.67742299
0.67733667
0.6772491
0.6771603
0.67707029
0.67697908
0.6768867
0.6767932
0.6766986
0.67660295
0.6765063
0.6764087
0.67631022
0.67621093
0.67611089
0.67601019
0.67590891
0.67580715
0.67570506
0.67560294
0.67550183
0.67540193
0.67530336
0.67520628
0.67511084
0.6750172
0.67492553
0.674836
0.6747488
0.6746641
0.6745821
0.67450298
0.67442691
0.67435411
0.67428727
0.67423543
0.67421204
0.67421716
0.67425143
0.674316
0.67441247
0.67454285
0.67470952
0.67491521
0.67516295
0.67545594
0.67579768
0.67619188
0.67664226
0.67715245
0.67772476
0.67836091
0.67906277
0.67983193
0.68326468
0.68318539
0.68310771
0.68303164
0.68295723
0.68288448
0.68281342
0.68274406
0.68267641
0.68261049
0.6825463
0.68248385
0.68242314
0.68236418
0.68230694
0.68225144
0.68219767
0.6821456
0.68209522
0.68204653
0.68199949
0.68195408
0.68191028
0.68186806
0.68182738
0.68178822
0.68175053
0.68171428
0.68167942
0.68164591
0.6816137
0.68158274
0.68155299
0.68152438
0.68149686
0.68147038
0.68144487
0.68142028
0.68139653
0.68137356
0.68135132
0.68132972
0.6813087
0.68128819
0.68126811
0.68124839
0.68122897
0.68120975
0.68119067
0.68117165
0.6811526
0.68113346
0.68111415
0.68109457
0.68107467
0.68105434
0.68103353
0.68101214
0.68099009
0.68096732
0.68094373
0.68091926
0.68089382
0.68086734
0.68083974
0.68081094
0.68078088
0.68074948
0.68071666
0.68068237
0.68064652
0.68060906
0.68056991
0.68052901
0.68048631
0.68044175
0.68039525
0.68034678
0.68029628
0.6802437
0.680189
0.68013212
0.68007303
0.68001169
0.67994807
0.67988214
0.67981387
0.67974324
0.67967023
0.67959482
0.67951701
0.67943678
0.67935415
0.67926911
0.67918167
0.67909185
0.67899966
0.67890514
0.67880832
0.67870923
0.67860791
0.67850442
0.67839882
0.67829117
0.67818153
0.67807001
0.67795674
0.67784206
0.67772709
0.67761181