/*--------------------------------*- C++ -*----------------------------------*\
| =========                 |                                                 |
| \\      /  F ield         | OpenFOAM: The Open Source CFD Toolbox           |
|  \\    /   O peration     | Version:  2.4.0                                 |
|   \\  /    A nd           | Web:      www.OpenFOAM.org                      |
|    \\/     M anipulation  |                                                 |
\*---------------------------------------------------------------------------*/
FoamFile
{
    version     2.0;
    format      ascii;
    class       volScalarField;
    location    "5000";
    object      k;
}
// * * * * * * * * * * * * * * * * * * * * * * * * * * * * * * * * * * * * * //

dimensions      [0 2 -2 0 0 0 0];

internalField   nonuniform List<scalar> 
9754
(
0.034915692
0.033888639
0.032658924
0.031268397
0.029789021
0.028299376
0.026886521
0.025646664
0.024669675
0.024010045
0.023657927
0.023529741
0.023488308
0.035573184
0.034740783
0.033728747
0.032541451
0.031225238
0.029844267
0.028467436
0.027172149
0.026042359
0.025154594
0.024553811
0.02423105
0.024114078
0.036101318
0.035428402
0.03460952
0.033627378
0.032496209
0.031261715
0.029979992
0.028711592
0.027524488
0.026491458
0.025677444
0.025121993
0.024819699
0.024708398
0.024690789
0.024664216
0.024569133
0.024350285
0.023988797
0.023491974
0.022907906
0.022281024
0.021663297
0.038231497
0.038184734
0.038064349
0.037884322
0.037643148
0.037339327
0.03696771
0.036518249
0.035975062
0.035317156
0.034522731
0.033582877
0.03251742
0.031368455
0.030184691
0.029019015
0.027930788
0.026982196
0.026229861
0.025711036
0.025421415
0.025312165
0.02530614
0.025312825
0.025271986
0.025143878
0.024899428
0.02454867
0.02412172
0.023657788
0.036033292
0.035942766
0.035877924
0.03585253
0.035875006
0.035951595
0.036085555
0.036275334
0.036507062
0.036762043
0.037023479
0.037276924
0.037510121
0.037712559
0.037875266
0.037990749
0.038053667
0.038060848
0.038013956
0.037895694
0.037721617
0.03748922
0.037195924
0.036836306
0.036400543
0.035874212
0.035239242
0.034478972
0.033591061
0.032597218
0.031534848
0.030446045
0.029376965
0.028378473
0.027504444
0.026806569
0.026316995
0.02603513
0.025926194
0.025930504
0.025970022
0.02597942
0.025930376
0.025806241
0.025596449
0.025324709
0.035375733
0.035299745
0.035249043
0.035238763
0.035274904
0.035365971
0.035515422
0.035722371
0.035973644
0.036251143
0.036538592
0.036821983
0.037089413
0.037330626
0.037536826
0.037700518
0.037815844
0.037878645
0.037886904
0.037842515
0.037729044
0.037563948
0.037342777
0.037062954
0.036718832
0.036301296
0.035797622
0.035192677
0.034474454
0.033644946
0.032725519
0.031748808
0.030751251
0.029772338
0.028855977
0.028050973
0.027401707
0.026936699
0.026659748
0.026550135
0.026560494
0.026618469
0.026686956
0.026712646
0.026681134
0.026608138
0.034692469
0.034630219
0.03459372
0.03459588
0.034645277
0.03474954
0.034912859
0.035135043
0.035403622
0.035701128
0.036011841
0.03632222
0.036620749
0.036897461
0.037143771
0.037352262
0.037516813
0.037632743
0.037697021
0.037708564
0.037669239
0.037563468
0.037409186
0.037202073
0.036938688
0.036613581
0.036218605
0.035742795
0.035173888
0.034503675
0.033736673
0.032892604
0.031999664
0.031088849
0.030194213
0.029355594
0.028614899
0.028009974
0.027566885
0.02729366
0.027181713
0.027190937
0.027262304
0.027374137
0.027472123
0.027541165
0.034095237
0.034046011
0.03398512
0.033935712
0.033912561
0.033926427
0.03398759
0.034103603
0.034279092
0.034514495
0.03479805
0.035112952
0.035444065
0.035778346
0.036104697
0.036413476
0.036696336
0.036945998
0.037156235
0.037322016
0.037439697
0.037507201
0.03752416
0.037492547
0.037398731
0.037255856
0.037065024
0.03682085
0.03651807
0.036149518
0.035706028
0.035177925
0.034559912
0.03385756
0.033088384
0.032276216
0.031447685
0.030633851
0.02986907
0.029188894
0.028625925
0.028203386
0.027935043
0.02781578
0.027821493
0.027896241
0.028036181
0.02819621
0.028348069
0.028481664
0.028601841
0.0287202
0.028851614
0.029010571
0.029201986
0.029435786
0.029719197
0.030061403
0.030463993
0.030922896
0.031433001
0.031984761
0.033340785
0.033303262
0.033255491
0.03321791
0.033207668
0.033231912
0.033303446
0.033429696
0.033615592
0.033862135
0.034158265
0.034487867
0.034836419
0.035191401
0.035542164
0.035879424
0.036195107
0.036482115
0.036734221
0.036946186
0.037113919
0.037234651
0.037307036
0.037331376
0.037309627
0.037231034
0.03710106
0.036928811
0.036706503
0.036428946
0.03609013
0.035682508
0.035198619
0.034635174
0.033997931
0.033301817
0.032567138
0.031818144
0.031082033
0.030387726
0.029765557
0.0292427
0.028842169
0.028577966
0.02844938
0.02844965
0.028517341
0.02867368
0.028871359
0.029086846
0.029303552
0.029518191
0.029735776
0.029965933
0.030217594
0.03050023
0.030821318
0.031182645
0.031584038
0.032025628
0.032508445
0.033019522
0.032568016
0.032540698
0.032505594
0.032480555
0.032479597
0.03251386
0.03259458
0.032729563
0.032924077
0.03317964
0.033485893
0.033827437
0.034190388
0.034562777
0.034934427
0.035296446
0.035641065
0.035961404
0.036251324
0.036505485
0.036719492
0.036890042
0.037015039
0.037093892
0.037127252
0.0371167
0.037057083
0.036941556
0.036790266
0.036591907
0.036342129
0.036035677
0.035666554
0.03522907
0.034721308
0.034148482
0.033523251
0.032863893
0.032191647
0.031529627
0.030902778
0.030336085
0.029853457
0.029475864
0.029215759
0.02908162
0.029070825
0.029127441
0.029279434
0.029494476
0.029747793
0.030022394
0.030309084
0.030605454
0.030913662
0.031239441
0.031588441
0.03196492
0.032370457
0.032804787
0.033264678
0.033743372
0.032576331
0.032584397
0.031778291
0.031760736
0.031737518
0.031724248
0.03173144
0.031774353
0.031862966
0.032005169
0.0322065
0.032468947
0.032782848
0.033133539
0.033507799
0.03389423
0.034283152
0.034666092
0.035035618
0.03538511
0.035708571
0.036000661
0.036256798
0.03647329
0.036647431
0.036777912
0.036865037
0.03691017
0.036911823
0.036872931
0.036778652
0.03664595
0.036473097
0.03625285
0.035980714
0.035651821
0.035261908
0.034809802
0.034300061
0.033744063
0.033157492
0.03255875
0.03196773
0.031405243
0.030892442
0.030450061
0.03009566
0.029843624
0.029704518
0.029676857
0.029721215
0.029855611
0.030068314
0.030331682
0.030632698
0.03095954
0.031305056
0.031666607
0.032043428
0.032435938
0.032844433
0.033267871
0.033703905
0.034148997
0.031753333
0.031757053
0.031766422
0.031786084
0.030974613
0.030967088
0.030954758
0.030949255
0.03096503
0.031015554
0.031110785
0.031258695
0.031465048
0.031732249
0.032051323
0.032408361
0.03279082
0.03318789
0.03359041
0.033990348
0.034380642
0.03475496
0.035107507
0.035433014
0.035726821
0.03598497
0.036204282
0.036382818
0.036520407
0.036617944
0.036675228
0.036694787
0.036674839
0.036606328
0.036491711
0.036344943
0.036155697
0.035919207
0.035631421
0.03528925
0.034891943
0.034443968
0.033954966
0.033438404
0.032910122
0.032386742
0.03188588
0.031425387
0.031022745
0.030693925
0.030452681
0.030308842
0.030263127
0.0302924
0.030401244
0.030592947
0.030844443
0.031141197
0.031473817
0.031833656
0.032213604
0.032607964
0.033013683
0.033426826
0.033842831
0.034258652
0.030918051
0.030928905
0.030945257
0.030975876
0.03016066
0.030162064
0.030157838
0.030159217
0.030182798
0.03023986
0.030340423
0.030492531
0.030702126
0.030971977
0.031293781
0.031654389
0.032041951
0.032446258
0.03285868
0.033271648
0.033678491
0.034073203
0.034450229
0.03480444
0.035131184
0.035426351
0.03568642
0.035908937
0.036093264
0.036239781
0.036348594
0.036421038
0.036457486
0.036455445
0.036416654
0.036327142
0.036203271
0.036045238
0.03584459
0.03559823
0.035303305
0.034959899
0.034571854
0.03414725
0.033697514
0.033235938
0.03277673
0.032334809
0.031924903
0.031562144
0.031260379
0.03103187
0.030885637
0.030821635
0.030834809
0.030911925
0.031071232
0.031290082
0.031559332
0.031869101
0.03220869
0.032572275
0.03295095
0.033337047
0.033723117
0.034103683
0.034471892
0.034829775
0.035178591
0.030190859
0.030114689
0.030079748
0.03007636
0.030093078
0.030115542
0.03015491
0.029338116
0.029347416
0.029349707
0.029357719
0.02938758
0.029449904
0.02955446
0.029709257
0.029920343
0.030190785
0.03051293
0.03087439
0.031264011
0.031672191
0.032090841
0.032512867
0.032932012
0.033342619
0.033739413
0.034117459
0.034472187
0.034799436
0.03509546
0.035357418
0.035584261
0.035775906
0.03593238
0.036054326
0.036142367
0.036195832
0.036217333
0.036202594
0.036146213
0.036043021
0.035914079
0.035750182
0.035544787
0.035296558
0.035005516
0.03467508
0.034311828
0.033925392
0.033526881
0.033128507
0.032742287
0.032381087
0.032057648
0.031783911
0.031570447
0.031423385
0.031344207
0.03134058
0.031385222
0.031500993
0.031675855
0.031901441
0.032166468
0.032461262
0.032778046
0.033107673
0.033441256
0.033771847
0.034090785
0.034400317
0.034704415
0.029324737
0.029256467
0.029228236
0.02922987
0.029251821
0.0292795
0.029325951
0.028509358
0.028525077
0.028533609
0.028547214
0.028582082
0.028648395
0.028755606
0.028911606
0.029122477
0.02939152
0.029711698
0.030071382
0.030460106
0.030868878
0.03129015
0.031717312
0.032144531
0.032566523
0.032978325
0.033375239
0.033752841
0.034107
0.034433857
0.034730303
0.034994965
0.03522737
0.035427309
0.03559497
0.035730767
0.035834593
0.035907656
0.035949184
0.03595891
0.035935005
0.035867327
0.03576067
0.035629209
0.03546435
0.035261128
0.035020409
0.034744634
0.034439424
0.034112601
0.033773484
0.033431977
0.033098464
0.03278387
0.032498829
0.032253624
0.032055874
0.031910235
0.031822829
0.031794284
0.031812801
0.031882967
0.03200657
0.032179054
0.032383518
0.032614857
0.032865363
0.033126254
0.033389801
0.033646295
0.03389676
0.034145514
0.0284594
0.028398246
0.028375684
0.028381721
0.028407673
0.028439522
0.028491708
0.027676876
0.027697817
0.027711848
0.027730152
0.02776893
0.027838046
0.02794663
0.028102403
0.02831143
0.028577178
0.028893196
0.029248596
0.029633594
0.030039802
0.030460209
0.030888684
0.031319831
0.031748749
0.032170811
0.032581593
0.032976868
0.033352611
0.033704939
0.034030584
0.034327947
0.034596249
0.034835019
0.035044089
0.035223569
0.035373463
0.035494304
0.035586121
0.035649035
0.035684899
0.035685877
0.035657614
0.035585833
0.035479199
0.035349226
0.035189513
0.034996122
0.034771854
0.034520891
0.034249681
0.033965929
0.033677563
0.033393582
0.033122988
0.032875013
0.032657199
0.032475394
0.03233498
0.032239913
0.032187729
0.032185215
0.032213294
0.032285351
0.032400157
0.032541246
0.03270365
0.032881066
0.033066498
0.033250943
0.033433588
0.033617776
0.027697283
0.027597015
0.027542211
0.027524414
0.02753407
0.027563007
0.027597999
0.027654751
0.026843143
0.026868255
0.026886892
0.02690902
0.026950716
0.027021547
0.027130307
0.027284518
0.027490174
0.027750855
0.028060661
0.028409428
0.02878804
0.029188696
0.029604914
0.030031039
0.030462105
0.030893605
0.031321262
0.031740954
0.032148696
0.03254062
0.032912906
0.033262222
0.033586832
0.033885745
0.034158256
0.034403914
0.034622529
0.034813998
0.034978485
0.035116104
0.035226942
0.035311993
0.035368908
0.035402162
0.035401187
0.035372163
0.035301061
0.035197055
0.035073208
0.034924333
0.03474794
0.034547211
0.034327633
0.034094823
0.033855676
0.033617613
0.033388239
0.033174646
0.032982778
0.032817687
0.032683793
0.032582649
0.032517385
0.032484136
0.032485948
0.032510442
0.032569602
0.032650903
0.032747412
0.032855169
0.032966784
0.033079988
0.033196852
0.033317684
0.033441716
0.026832095
0.026739631
0.026690445
0.026676598
0.026689067
0.026720084
0.026757263
0.026817533
0.02601055
0.026038878
0.026061206
0.026086298
0.026129988
0.026201535
0.026309379
0.026460805
0.026661695
0.026915692
0.027217409
0.027557384
0.02792715
0.028319479
0.028728398
0.029148719
0.029575898
0.030005819
0.030434564
0.030858332
0.031273409
0.031676135
0.032062816
0.032430139
0.032776313
0.03310022
0.033400984
0.033677938
0.033930638
0.034158798
0.034362317
0.034541188
0.034695426
0.034825472
0.034930627
0.035012405
0.0350679
0.03510158
0.035101571
0.035075751
0.035010484
0.034913719
0.034798667
0.034664053
0.034510017
0.034337158
0.034150839
0.033956807
0.033760846
0.033569045
0.033386971
0.033219537
0.033070943
0.032944163
0.032841687
0.032763742
0.032711291
0.032680813
0.032675352
0.032685036
0.032711972
0.032752208
0.032798452
0.032848131
0.032902338
0.032961145
0.033024487
0.025974453
0.025889141
0.025844884
0.025834248
0.025848766
0.025881044
0.025919535
0.025982378
0.025181343
0.025212022
0.025237164
0.025264395
0.025309216
0.025380569
0.025486511
0.025634057
0.025828938
0.026074808
0.02636676
0.026696008
0.027054709
0.027436184
0.027834956
0.02824628
0.028666026
0.029090458
0.029516018
0.029939233
0.030356682
0.030764949
0.031160518
0.031540166
0.031902115
0.032245196
0.032568429
0.032871002
0.033152283
0.0334118
0.033649239
0.033864418
0.03405723
0.034227788
0.034375887
0.034502023
0.034605281
0.034686673
0.034742745
0.034777867
0.034782472
0.03476308
0.034708863
0.0346242
0.034518678
0.03440052
0.034268852
0.034125303
0.03397171
0.033813373
0.033655256
0.033501861
0.033357098
0.033224209
0.03310575
0.033003238
0.03291781
0.032848936
0.032796908
0.032759019
0.032733779
0.032719364
0.032711527
0.032708175
0.032709337
0.032714053
0.032724162
0.025126031
0.02504725
0.025007284
0.024999194
0.025015063
0.025047871
0.025086885
0.025151456
0.024357584
0.024389835
0.024416981
0.024445582
0.024490744
0.024561079
0.024664244
0.024806952
0.024994744
0.025231242
0.025511978
0.025828812
0.026174497
0.026542882
0.026928957
0.027328403
0.027737483
0.02815283
0.028571236
0.028989557
0.029404676
0.029813445
0.030212565
0.03059896
0.030970918
0.031327283
0.03166704
0.031989297
0.032293301
0.032578438
0.032844224
0.033090311
0.033316445
0.033522522
0.0337084
0.033874209
0.034019577
0.03414438
0.034247236
0.034328959
0.034386997
0.034424112
0.034436315
0.034424962
0.034386001
0.034316372
0.034228024
0.034122909
0.034010369
0.033890637
0.033765563
0.033637879
0.033510489
0.033386115
0.033267839
0.033157622
0.033056985
0.032966571
0.032886702
0.032816692
0.032755566
0.032702219
0.032653815
0.032608867
0.032567899
0.032531006
0.032498475
0.024288277
0.024215442
0.024179187
0.024173051
0.024189653
0.024222348
0.024261189
0.02432674
0.023541102
0.023574234
0.023602652
0.023631929
0.02367672
0.023745312
0.023844942
0.023981997
0.024161795
0.024387884
0.024656193
0.024959197
0.025290212
0.025643586
0.026014752
0.026399791
0.026795336
0.027198372
0.027606024
0.028015475
0.028423909
0.02882846
0.029226075
0.029613864
0.029990227
0.030354068
0.030704393
0.031040292
0.031360955
0.031665681
0.031953873
0.032225045
0.032478816
0.032714915
0.032933128
0.033133403
0.033315455
0.033478752
0.033622408
0.033746173
0.033849059
0.033931386
0.033992176
0.034031491
0.034051646
0.034047801
0.034024562
0.033974074
0.03390388
0.033818834
0.033723266
0.033620112
0.033512487
0.033404654
0.033297549
0.033192384
0.033090459
0.032992755
0.032899934
0.032812355
0.03272997
0.032651172
0.032574266
0.032499337
0.032427569
0.032359351
0.032294837
0.02346239
0.023394954
0.023361886
0.023357183
0.023373985
0.023406016
0.023444087
0.023509967
0.022733444
0.022766858
0.022795907
0.022825248
0.02286905
0.022935272
0.023030733
0.023161469
0.023332548
0.023547406
0.023802331
0.024090372
0.024405378
0.024742163
0.025096571
0.025465058
0.025844604
0.02623252
0.026626249
0.027023282
0.027421103
0.027817129
0.028208567
0.028592745
0.028968201
0.029333935
0.02968902
0.03003258
0.030363804
0.030681958
0.030986385
0.031276516
0.031551871
0.03181206
0.032056773
0.032285834
0.032498907
0.032695262
0.032874048
0.033034643
0.033176349
0.033298827
0.03340157
0.033484285
0.033547516
0.033590181
0.03361305
0.033615937
0.033603337
0.033568322
0.033517663
0.033452141
0.033375022
0.03328904
0.033197587
0.033102898
0.033006594
0.032909785
0.0328132
0.032717084
0.032621284
0.032525615
0.032429273
0.032333749
0.032240802
0.0321509
0.032064141
0.02264929
0.022586742
0.022556389
0.022552671
0.022569222
0.022600131
0.022636936
0.022702593
0.021935829
0.021969024
0.021998157
0.022027039
0.022069327
0.022132665
0.022223448
0.022347352
0.02250917
0.022712194
0.022953035
0.023225276
0.023523258
0.02384223
0.024178416
0.024528619
0.024890135
0.025260578
0.025637687
0.026019242
0.026403013
0.026786695
0.027167764
0.027543776
0.027913431
0.028275846
0.028630191
0.02897566
0.029311489
0.029636962
0.029951412
0.030254235
0.030544899
0.03082294
0.031087968
0.031339722
0.031577789
0.031801313
0.032009357
0.032201115
0.03237584
0.032532941
0.032671878
0.032792218
0.032893812
0.032976238
0.033039427
0.033083249
0.033108849
0.033114195
0.033105635
0.033079274
0.033039243
0.032985919
0.032921276
0.032847317
0.032765848
0.032678398
0.03258613
0.032489909
0.032390314
0.032287682
0.032181148
0.032073819
0.031968352
0.031865449
0.031765135
0.03166756
0.031572677
0.031480547
0.021760269
0.021776199
0.02180562
0.02184077
0.021905749
0.02114911
0.021181678
0.021210449
0.021238439
0.021278784
0.021338833
0.02142456
0.02154127
0.021693469
0.02188428
0.022110595
0.022366491
0.022646763
0.022947061
0.023263956
0.023594565
0.023936476
0.024287575
0.024645872
0.025009417
0.025376246
0.02574432
0.026111379
0.026475219
0.026834701
0.027189077
0.02753763
0.027879652
0.028214455
0.028541381
0.028859793
0.029169101
0.029468763
0.029758285
0.030037237
0.030305302
0.030562015
0.030806431
0.031037526
0.03125436
0.031456077
0.031641922
0.031811221
0.031963401
0.032097987
0.032214505
0.032312635
0.032391966
0.03245269
0.032494525
0.032519061
0.032525718
0.032518878
0.032495319
0.032458017
0.03240821
0.032347069
0.032276083
0.032196308
0.032108676
0.032013921
0.031912447
0.031803618
0.03169212
0.03158175
0.03147339
0.031367036
0.031262756
0.031160598
0.031060606
0.020980367
0.020995382
0.02102304
0.021056284
0.0211202
0.020373745
0.020405367
0.020433435
0.020460172
0.020498237
0.020554701
0.020635123
0.020744433
0.020886838
0.021065272
0.021276872
0.021516168
0.02177837
0.022059493
0.022356422
0.02266656
0.022987751
0.023318131
0.023655952
0.023999508
0.024347082
0.024696883
0.025046905
0.02539518
0.025740734
0.026082947
0.026421229
0.02675498
0.027083611
0.027406543
0.027723205
0.02803305
0.028335571
0.02863028
0.028916744
0.029194633
0.02946345
0.029722215
0.02996985
0.030205323
0.030427679
0.030636025
0.030829541
0.03100753
0.031169308
0.031314221
0.031441792
0.031551327
0.031642568
0.031715402
0.031770347
0.031807649
0.031828554
0.031833122
0.031822337
0.031796912
0.031757701
0.03170561
0.031641735
0.031566932
0.031481936
0.031387184
0.031282038
0.031172695
0.031063749
0.030956179
0.030850052
0.030745388
0.030642225
0.030540607
0.020212954
0.02022683
0.020252539
0.020283873
0.020346291
0.019609899
0.019640213
0.019667314
0.019692489
0.019728024
0.019780721
0.019855723
0.019957581
0.020090196
0.020256302
0.020453246
0.020675966
0.020920055
0.021181853
0.02145853
0.02174774
0.022047559
0.022356341
0.022672554
0.022994712
0.023321317
0.02365081
0.023981423
0.024311409
0.024639954
0.024966562
0.025290767
0.025612084
0.025930015
0.026244093
0.026553806
0.026858687
0.027158303
0.027452186
0.027739959
0.028021266
0.028295645
0.028562107
0.028819613
0.029067028
0.029303343
0.029527592
0.029738801
0.029936242
0.030119058
0.030286468
0.030437764
0.03057216
0.030688912
0.030787803
0.030868967
0.030932603
0.030979147
0.031008906
0.031022118
0.031020517
0.031002851
0.030970493
0.03092414
0.030864691
0.030792764
0.030708727
0.030611885
0.030509607
0.030407344
0.030305782
0.030204925
0.030104813
0.030005524
0.029907121
0.019457585
0.019470169
0.019493829
0.01952348
0.019584139
0.018869531
0.018897877
0.018923772
0.018947181
0.018980104
0.019029049
0.019098744
0.019193374
0.019316542
0.019470769
0.019653581
0.019860284
0.020086805
0.020329775
0.020586612
0.02085519
0.021133785
0.021420936
0.021715301
0.022015582
0.022320476
0.022628625
0.02293848
0.023248497
0.02355801
0.02386664
0.024174005
0.024479753
0.024783461
0.025084788
0.025383272
0.025678591
0.025970274
0.026258049
0.026541453
0.026820241
0.027094079
0.027361879
0.02762261
0.027875247
0.028118733
0.02835207
0.028574263
0.028784434
0.028981489
0.029164777
0.029333354
0.029486298
0.029622641
0.029742352
0.029844972
0.029930522
0.029999107
0.030050852
0.030085913
0.030104786
0.030107563
0.030094681
0.030066445
0.030023679
0.029966833
0.02989616
0.029810839
0.029718936
0.029626345
0.029533754
0.029441149
0.029348665
0.029256409
0.029164447
0.018725266
0.018736505
0.018758141
0.018786334
0.018846407
0.018171683
0.01819802
0.018222742
0.018244466
0.018274963
0.018320432
0.018385227
0.018473199
0.018587671
0.018730965
0.018900752
0.019092655
0.019302892
0.019528344
0.019766638
0.020015832
0.02027437
0.020540946
0.020814374
0.021093512
0.021377225
0.021664321
0.021953446
0.02224324
0.022533155
0.022822919
0.023112224
0.023400824
0.023688379
0.023974639
0.02425922
0.024541914
0.024822256
0.025100126
0.025375046
0.025646999
0.02591542
0.026179475
0.026438123
0.026690624
0.026935671
0.027172284
0.027399334
0.027616132
0.027821624
0.028014764
0.028194359
0.028359724
0.028509929
0.028644401
0.028762612
0.028864706
0.028950491
0.029019852
0.029072766
0.029109341
0.029129671
0.029133943
0.029122457
0.029095329
0.029052923
0.028995396
0.028921747
0.028840488
0.028757705
0.028674555
0.028591111
0.028507452
0.028423635
0.028339675
0.01803545
0.01804542
0.018065193
0.018091787
0.018150789
0.017520831
0.01754574
0.017569583
0.017589897
0.0176183
0.017660698
0.017721122
0.017803135
0.017909806
0.018043275
0.018201336
0.018379885
0.018575389
0.018784941
0.019006346
0.019237813
0.019477923
0.019725499
0.019979478
0.020238852
0.020502624
0.02076975
0.021039032
0.021309287
0.021580051
0.021851138
0.022122366
0.022393507
0.022664367
0.022934678
0.023204245
0.023472775
0.023740088
0.024005881
0.02427002
0.024532333
0.024792406
0.025049573
0.025302842
0.025551278
0.025793917
0.026029756
0.026257773
0.026476996
0.026686565
0.026885178
0.027071823
0.027245371
0.027404674
0.027548873
0.027677879
0.027791397
0.027889189
0.02797104
0.028036801
0.02808641
0.028119836
0.028137122
0.028138347
0.028123405
0.028092541
0.028045785
0.027982022
0.027910109
0.027836556
0.027762495
0.027687967
0.027613025
0.027537724
0.027462122
0.017393252
0.01740211
0.017420247
0.017444966
0.01750093
0.01691191
0.016935698
0.016958873
0.016978017
0.017004637
0.017044353
0.017100914
0.017177626
0.017277333
0.017402011
0.017549558
0.017716109
0.017898346
0.018093548
0.018299665
0.018515037
0.018738356
0.018968548
0.019204654
0.019445771
0.019691013
0.019939465
0.020190056
0.020441747
0.020694165
0.020947196
0.021200763
0.021454708
0.021708956
0.021963286
0.022217621
0.022471663
0.022725352
0.022978339
0.023230603
0.023481855
0.023731981
0.023980246
0.024225738
0.024467375
0.024704514
0.024936184
0.02516158
0.025379404
0.025588714
0.025788443
0.025977747
0.026155065
0.026319016
0.026469037
0.026604869
0.026725807
0.026831598
0.02692196
0.026996656
0.027055505
0.02709836
0.027125145
0.027135845
0.027130453
0.027109051
0.027071538
0.027016707
0.026953501
0.026888536
0.026822955
0.026756789
0.026690082
0.026622907
0.026555352
0.016792924
0.01680085
0.016817592
0.016840433
0.016892784
0.016340777
0.016363546
0.016386158
0.016404296
0.01642938
0.016466753
0.016519902
0.016591906
0.016685404
0.016802225
0.016940357
0.017096148
0.017266469
0.017448757
0.017641089
0.017841914
0.018050017
0.018264408
0.018484212
0.018708612
0.018936809
0.019167985
0.019401186
0.019635479
0.01987057
0.020106399
0.020342935
0.020580123
0.020817926
0.021056266
0.021295073
0.02153422
0.021773604
0.02201305
0.022252435
0.022491627
0.0227304
0.022968098
0.0232039
0.023436904
0.023666284
0.023891166
0.024110678
0.024323839
0.024529635
0.024726994
0.024914908
0.025092114
0.025257276
0.025409604
0.025548586
0.025673702
0.025784517
0.025880625
0.025961687
0.026027423
0.02607759
0.026112017
0.026130602
0.026133288
0.026120088
0.026090817
0.026044181
0.025989102
0.0259322
0.025874616
0.025816378
0.025757521
0.02569809
0.025638138
0.016229643
0.016236824
0.01625241
0.016273551
0.016322499
0.015803707
0.015825534
0.015847648
0.015864905
0.015888652
0.015923965
0.015974093
0.016041906
0.016129861
0.016239651
0.016369348
0.016515486
0.016675106
0.016845783
0.017025705
0.017213412
0.017407769
0.017607854
0.017812862
0.018022044
0.018234677
0.018450019
0.018667215
0.01888542
0.019104395
0.019324114
0.019544572
0.019765755
0.019987655
0.020210254
0.020433528
0.020657439
0.020881944
0.021106973
0.021332456
0.021558346
0.021784461
0.022010212
0.022234853
0.022457569
0.022677542
0.022893926
0.023105859
0.023312436
0.023512667
0.023705505
0.023889928
0.024064722
0.024228585
0.024380687
0.024520418
0.024647221
0.024760593
0.024860052
0.024945182
0.025015626
0.025071065
0.025111254
0.025136016
0.025145243
0.02513893
0.025116765
0.025077428
0.025029715
0.024980166
0.024929905
0.024878958
0.024827353
0.024775128
0.024722321
0.01569939
0.015706007
0.015720666
0.01574034
0.015786281
0.01529741
0.015318393
0.015340082
0.015356568
0.015379148
0.015412647
0.015460091
0.015524162
0.015607152
0.015710632
0.015832752
0.015970214
0.016120209
0.016280437
0.016449184
0.016625069
0.016807021
0.01699418
0.017185794
0.017381173
0.017579653
0.017780561
0.017983118
0.01818656
0.018390687
0.018595504
0.018801029
0.019007275
0.019214255
0.019421979
0.01963045
0.019839667
0.020049625
0.020260311
0.02047171
0.020683843
0.020896601
0.021109488
0.021321858
0.021533004
0.021742174
0.021948576
0.02215138
0.022349735
0.022542687
0.022729216
0.022908302
0.023078767
0.023239341
0.023389179
0.023527621
0.023654076
0.023767994
0.023868839
0.023956138
0.024029476
0.024088476
0.024132829
0.024162304
0.024176735
0.024176268
0.024160081
0.024127152
0.024086042
0.024043128
0.023999502
0.023955183
0.023910197
0.023864573
0.023818344
0.015198837
0.015205056
0.015218998
0.015237432
0.015280766
0.014819059
0.014839314
0.014860657
0.014876483
0.014898052
0.014929951
0.014975003
0.01503572
0.015114244
0.01521204
0.015327328
0.015456964
0.01559828
0.015749085
0.015907751
0.016072969
0.016243723
0.016419204
0.016598705
0.016781584
0.016967228
0.017155017
0.017344241
0.017534198
0.017724726
0.017915849
0.018107605
0.018300028
0.018493151
0.018687006
0.018881616
0.019077002
0.019273183
0.019470174
0.019667989
0.019866682
0.020066187
0.020266085
0.020465818
0.020664778
0.020862308
0.021057703
0.021250204
0.021439032
0.021623296
0.021802025
0.021974236
0.022138784
0.022294433
0.022440342
0.022575824
0.022700259
0.022813065
0.022913668
0.023001552
0.023076258
0.023137364
0.023184514
0.02321743
0.02323591
0.023239866
0.023228908
0.023201679
0.023166497
0.023129549
0.023091897
0.023053559
0.023014559
0.022974922
0.022934677
0.014725236
0.014731205
0.014744615
0.014762007
0.014803086
0.014366245
0.01438589
0.014406972
0.014422245
0.014442946
0.014473437
0.014516354
0.014574058
0.014648549
0.014741201
0.0148503
0.014972849
0.015106307
0.015248584
0.015398132
0.015553701
0.015714329
0.015879246
0.016047787
0.016219349
0.016393358
0.016569243
0.016746347
0.016924026
0.017102144
0.017280739
0.017459865
0.017639572
0.017819909
0.018000923
0.018182655
0.018365145
0.018548429
0.018732542
0.018917519
0.019103432
0.019290247
0.019477595
0.019664983
0.019851874
0.020037685
0.020221788
0.020403504
0.020582128
0.020756849
0.02092677
0.021090972
0.021248372
0.021397788
0.021538401
0.021669528
0.021790538
0.02190083
0.021999807
0.022086926
0.022161695
0.022223657
0.02227242
0.022307669
0.022329164
0.022336743
0.022330082
0.022307785
0.022277837
0.022246187
0.022213849
0.022180842
0.022147187
0.022112907
0.022078023
0.014276306
0.014282148
0.014295186
0.014311707
0.014350831
0.013936946
0.013956089
0.013976987
0.013991807
0.014011769
0.014041021
0.01408203
0.014137015
0.014207853
0.014295829
0.014399295
0.014515395
0.014641704
0.014776231
0.014917498
0.015064313
0.015215756
0.015371097
0.015529702
0.015691002
0.015854461
0.016019543
0.016185639
0.016352154
0.016518968
0.016686134
0.016853714
0.01702177
0.017190362
0.017359551
0.01752939
0.017699932
0.01787123
0.018043331
0.018216286
0.018390183
0.018565008
0.018740438
0.018916034
0.019091314
0.019265756
0.019438796
0.019609816
0.019778179
0.019943141
0.020103879
0.020259543
0.020409122
0.020551506
0.020685917
0.020811697
0.020928227
0.021034912
0.021131152
0.021216392
0.021290123
0.021351869
0.021401213
0.02143781
0.021461391
0.021471757
0.021468609
0.021450502
0.02142508
0.021398032
0.021370324
0.021341971
0.02131299
0.0212834
0.021253219
0.013850153
0.013855968
0.013868766
0.013884562
0.013921988
0.013529466
0.013548199
0.013568981
0.013583439
0.013602776
0.013630936
0.013670228
0.013722748
0.013790255
0.013873961
0.01397228
0.01408248
0.014202254
0.014329703
0.014463416
0.014602252
0.014745335
0.014891963
0.015041537
0.015193514
0.015347386
0.015502654
0.015658746
0.015815106
0.015971633
0.016128384
0.016285429
0.016442835
0.016600673
0.016759011
0.016917912
0.017077439
0.017237655
0.017398619
0.017560394
0.017723077
0.017886672
0.018050893
0.018215347
0.018379602
0.018543189
0.018705596
0.018866264
0.019024614
0.019179962
0.019331553
0.019478598
0.019620157
0.019755192
0.019882971
0.020002868
0.020114292
0.020216666
0.020309403
0.020391955
0.020463813
0.020524492
0.020573564
0.020610669
0.020635514
0.020647886
0.020647579
0.020632862
0.020611239
0.020588091
0.020564322
0.020539939
0.020514957
0.02048939
0.020463255
0.013445201
0.013451068
0.013463736
0.013478929
0.013514875
0.013142385
0.013160784
0.013181506
0.013195681
0.013214489
0.01324168
0.013279419
0.013329686
0.013394137
0.013473917
0.013567504
0.013672283
0.013786055
0.013907005
0.014033791
0.014165322
0.014300758
0.014439431
0.014580763
0.014724241
0.014869381
0.015015711
0.015162695
0.01530981
0.015456968
0.015604228
0.015751663
0.015899346
0.016047352
0.016195754
0.016344623
0.016494028
0.016644039
0.016794724
0.016946152
0.017098429
0.017251571
0.017405326
0.017559339
0.017713221
0.017866548
0.018018857
0.01816964
0.018318369
0.018464419
0.018607092
0.018745661
0.018879254
0.019006898
0.019127912
0.019241703