/*--------------------------------*- C++ -*----------------------------------*\
| =========                 |                                                 |
| \\      /  F ield         | OpenFOAM: The Open Source CFD Toolbox           |
|  \\    /   O peration     | Version:  2.4.0                                 |
|   \\  /    A nd           | Web:      www.OpenFOAM.org                      |
|    \\/     M anipulation  |                                                 |
\*---------------------------------------------------------------------------*/
FoamFile
{
    version     2.0;
    format      ascii;
    class       volScalarField;
    location    "5000";
    object      nut;
}
// * * * * * * * * * * * * * * * * * * * * * * * * * * * * * * * * * * * * * //

dimensions      [0 2 -1 0 0 0 0];

internalField   nonuniform List<scalar> 
9754
(
0.0097209208
0.0084663465
0.0072921019
0.0062946647
0.0054787408
0.0048107859
0.0042659876
0.0038350946
0.0035163689
0.0033070951
0.0031991092
0.0031835227
0.0032278581
0.010847703
0.0096435188
0.0084334292
0.0073248562
0.006387363
0.0056128
0.0049712059
0.0044438548
0.0040241004
0.0037106514
0.0035008071
0.0033895964
0.0033678067
0.011937926
0.010813361
0.0096365309
0.0084739335
0.007424146
0.0065347822
0.0057918065
0.005170196
0.0046552105
0.0042418321
0.0039284612
0.0037145965
0.0035965719
0.0035626457
0.0035992663
0.003682289
0.0037920454
0.0039162957
0.0040361991
0.0039436562
0.0038425498
0.0037516717
0.003694722
0.018915532
0.018206519
0.017435112
0.016619549
0.01576885
0.014885941
0.013962902
0.012987427
0.011948158
0.010843996
0.0096991515
0.0085840482
0.0075851103
0.006733799
0.0060149633
0.0054078106
0.0049006446
0.0044886814
0.0041716336
0.0039510876
0.0038211555
0.0037721715
0.0038010566
0.0038792409
0.0039842984
0.0041107964
0.0042453932
0.0042744288
0.0041991741
0.0041253159
0.023545474
0.023488704
0.023426174
0.02335379
0.023266858
0.02316069
0.023030532
0.022869243
0.022673374
0.022440792
0.022168437
0.02185278
0.021490122
0.021077155
0.020610441
0.020086073
0.019500794
0.018854048
0.018151383
0.017393156
0.016596677
0.015767797
0.014904225
0.013998119
0.01303901
0.01201899
0.010939936
0.0098303962
0.0087612057
0.0078050895
0.0069834214
0.0062822705
0.0056848124
0.005180743
0.0047662912
0.0044435401
0.0042123349
0.004068594
0.0040021462
0.0040192157
0.0040890958
0.0041883461
0.0043119237
0.0044510393
0.0045975905
0.0045995547
0.023672552
0.023622467
0.023566079
0.023501659
0.023423111
0.023327493
0.023210422
0.023065467
0.022889706
0.022681388
0.022437867
0.022155954
0.021832061
0.021462816
0.021044881
0.020574684
0.020048799
0.019465108
0.018824866
0.018134555
0.017394567
0.016621429
0.015815169
0.014972416
0.014085905
0.013147362
0.012150958
0.011100551
0.010027952
0.0090006915
0.0080797389
0.0072809149
0.0065927277
0.0060007779
0.0054961782
0.0050777912
0.0047466294
0.0045029495
0.0043419323
0.0042567372
0.0042578604
0.0043076944
0.0044068242
0.004524315
0.0046617809
0.00481459
0.023794684
0.023750216
0.02370002
0.023641763
0.023571286
0.023485295
0.023380104
0.023249965
0.023092444
0.022906154
0.022688853
0.022437751
0.022149513
0.021820821
0.021448393
0.021028897
0.020559028
0.020036067
0.019459243
0.018831152
0.018158661
0.017441841
0.016693058
0.015910644
0.015090661
0.014226931
0.013312786
0.012343472
0.01132458
0.010289193
0.0092997138
0.0084077829
0.0076267463
0.0069472273
0.0063571007
0.0058506466
0.0054264947
0.0050853651
0.0048269362
0.0046458478
0.0045472116
0.0045151609
0.0045504815
0.004639322
0.0047524641
0.0048865087
0.023982556
0.023950629
0.023911937
0.023872174
0.023827745
0.02377525
0.023711942
0.023634689
0.023540277
0.023423561
0.023282541
0.023116169
0.022922588
0.02269942
0.022443678
0.022152228
0.021821877
0.021449461
0.021031868
0.020566244
0.020050797
0.019485936
0.018875335
0.01822593
0.017534954
0.016810812
0.01605363
0.015258785
0.014421011
0.013534515
0.012595404
0.011610455
0.010612381
0.009657184
0.0087895158
0.0080217454
0.007347072
0.0067574205
0.0062477313
0.0058165174
0.0054644131
0.0051880851
0.0049913662
0.0048697594
0.0048096021
0.0048235129
0.0048859256
0.004999061
0.0051280571
0.0052754495
0.005440603
0.0056195291
0.0058101366
0.0060117189
0.0061507559
0.0062468442
0.0062861701
0.0063523377
0.0064513878
0.0065681985
0.0066719718
0.0067608978
0.024085642
0.024057231
0.024024024
0.023988403
0.023949709
0.023902284
0.023845432
0.023776125
0.023691515
0.023586973
0.023460874
0.023312475
0.023140272
0.022942291
0.022715938
0.022458367
0.022166554
0.021837489
0.021468245
0.021056044
0.020598664
0.020095223
0.019547273
0.018959236
0.018335069
0.017671755
0.01697324
0.016243119
0.015475967
0.014666992
0.013811054
0.012904779
0.011955455
0.010993804
0.010069634
0.0092222891
0.0084645102
0.0077938237
0.0072044228
0.0066909879
0.0062527387
0.005887173
0.0055959585
0.0053802547
0.005231366
0.0051548464
0.0051299402
0.0051717551
0.0052607149
0.0053886721
0.0055314887
0.0056910365
0.0058666988
0.0060568232
0.0062585071
0.0064700417
0.006689402
0.0068779082
0.0070148263
0.0071118851
0.0072466453
0.0073283968
0.024184267
0.024158389
0.024130502
0.024100073
0.024064919
0.024022701
0.023971869
0.023909867
0.023834225
0.02374077
0.023628196
0.023496018
0.023343053
0.0231677
0.022967769
0.022740767
0.022483925
0.02219442
0.021869504
0.021506548
0.021103234
0.020658012
0.020171023
0.019644775
0.019081468
0.018483676
0.017850248
0.01717862
0.016477695
0.015740543
0.014962989
0.014140152
0.01326903
0.01235667
0.011431019
0.010535673
0.0097062409
0.0089579468
0.008291457
0.0077013717
0.0071845293
0.0067378544
0.0063606365
0.0060548931
0.0058164932
0.0056482719
0.0055456042
0.0054933754
0.0055046187
0.0055634939
0.0056692272
0.005806344
0.0059626243
0.0061327893
0.0063169775
0.0065140245
0.0067221941
0.006938776
0.0071614881
0.007388656
0.0076186098
0.0078386857
0.024234758
0.024206557
0.024277281
0.024254293
0.024231091
0.02420588
0.024173912
0.024136415
0.024091204
0.024035987
0.023968624
0.023885339
0.023785087
0.023667598
0.02353196
0.023376912
0.023200648
0.023001057
0.02277569
0.022521967
0.022237337
0.021919345
0.021565736
0.021174694
0.020745529
0.02027936
0.019777156
0.019240614
0.018670111
0.018067983
0.017427173
0.016755404
0.0160503
0.015306375
0.014518956
0.013685165
0.012811488
0.011922045
0.011054716
0.010243646
0.0095051819
0.0088423879
0.0082525628
0.0077319165
0.0072778045
0.0068904023
0.0065682421
0.006312424
0.0061224906
0.0059937536
0.0059214113
0.005897819
0.0059320853
0.006001102
0.006114386
0.0062573248
0.0064210072
0.0066012371
0.0067916893
0.0069923703
0.0072016896
0.0074177582
0.0076385787
0.0078616455
0.02435887
0.024339707
0.024320218
0.024296954
0.024364551
0.024345395
0.024326502
0.024303952
0.02427605
0.024243096
0.024203205
0.02415436
0.024094721
0.024020856
0.023931924
0.023827816
0.023707848
0.023571049
0.023415965
0.023240862
0.023043644
0.022822029
0.0225737
0.022296397
0.021988
0.021646651
0.021271244
0.020861986
0.020418839
0.019942476
0.019433369
0.018893516
0.018322375
0.017715419
0.017073569
0.016402067
0.015693801
0.014943797
0.014149209
0.013315237
0.012462236
0.011624492
0.010833395
0.010106539
0.0094498748
0.0088611738
0.0083377585
0.007877575
0.0074800135
0.007145385
0.0068734153
0.0066622984
0.0065130281
0.0064139665
0.0063691113
0.006370481
0.0064165387
0.00649345
0.0066084518
0.0067516245
0.0069166108
0.0070971326
0.0072896993
0.0074914193
0.0076999767
0.0079132555
0.024432857
0.024416765
0.024400531
0.024382539
0.02444633
0.024430906
0.024414717
0.024394654
0.024370847
0.024342282
0.024307465
0.024264664
0.024212307
0.024147264
0.024068841
0.023977037
0.02387134
0.023751023
0.023614936
0.023461694
0.023289561
0.023096584
0.02288072
0.022639932
0.022372274
0.022075963
0.02174974
0.021393286
0.021005891
0.020587374
0.020137783
0.019658104
0.01914882
0.01860874
0.018038591
0.017430925
0.016792657
0.016121432
0.015410439
0.014656618
0.013863659
0.013049911
0.01224466
0.01147639
0.01076417
0.010114806
0.0095288495
0.0090047721
0.0085403222
0.0081360361
0.0077912106
0.0075049207
0.0072782721
0.007106868
0.0069888564
0.0069169853
0.0068946538
0.0069117822
0.0069683227
0.0070549422
0.0071714534
0.0073128101
0.0074741243
0.0076512815
0.0078407732
0.0080396563
0.0082456253
0.0084534218
0.0086599536
0.024511169
0.024513405
0.024509236
0.024501407
0.024488109
0.024475192
0.024461582
0.024521137
0.024509383
0.024495262
0.024478097
0.024457851
0.024433395
0.024403406
0.024366373
0.02432095
0.024264262
0.024195713
0.024115352
0.024022786
0.023917476
0.023798526
0.023664857
0.023515073
0.023347555
0.023160565
0.022952317
0.022721068
0.022465174
0.02218337
0.021875084
0.021539235
0.021175071
0.02078216
0.020360692
0.019911004
0.019432745
0.018927214
0.018391835
0.017823287
0.017218055
0.016584206
0.01591401
0.015202471
0.014453982
0.013683147
0.012914295
0.012172533
0.011477725
0.010838775
0.010258977
0.0097358257
0.0092701003
0.0088616569
0.0085098736
0.0082148266
0.0079743288
0.0077865367
0.0076503919
0.0075573748
0.0075098079
0.0075041671
0.0075361616
0.0076002348
0.0076944631
0.0078142878
0.0079557949
0.0081151427
0.0082891937
0.0084765903
0.0086689695
0.0088616572
0.024567281
0.024570826
0.02456881
0.024563022
0.024552721
0.024543155
0.024533415
0.024587844
0.024579287
0.024567705
0.024553246
0.024536235
0.024515626
0.024490236
0.024458738
0.024419976
0.024371292
0.024312135
0.024242555
0.024162222
0.024070729
0.023967382
0.023851357
0.023721556
0.023576683
0.023415306
0.023235914
0.023036992
0.022817073
0.022574969
0.022310027
0.022021018
0.02170688
0.021366822
0.021000466
0.020607736
0.020188368
0.019742857
0.019270528
0.018770823
0.018242087
0.017678001
0.017079035
0.016448925
0.015782497
0.015081096
0.01435645
0.01362778
0.012917967
0.012246088
0.011622656
0.0110508
0.010532575
0.010069229
0.0096606032
0.0093070966
0.0090063195
0.0087566901
0.0085568588
0.0084053038
0.008295801
0.0082283821
0.0082018152
0.0082129467
0.0082567967
0.0083304504
0.008430813
0.0085544175
0.0086978016
0.0088607566
0.0090317517
0.0092043602
0.024616485
0.024621145
0.02462098
0.024617333
0.024609696
0.024603359
0.024597185
0.024645252
0.024639601
0.024630648
0.024618823
0.024604859
0.024587897
0.024566918
0.024540767
0.024508458
0.02446752
0.024417406
0.024358117
0.02428934
0.024210744
0.024121779
0.024021824
0.023910033
0.023785395
0.02364677
0.023492926
0.023322594
0.023134506
0.022927604
0.02270125
0.022454217
0.022185332
0.021893607
0.021578313
0.021238992
0.020875235
0.020487017
0.020074035
0.019635987
0.019173376
0.018681252
0.018161276
0.0176041
0.017012607
0.016391566
0.01574016
0.015064766
0.014381057
0.013708544
0.013064758
0.012461732
0.011903699
0.01139557
0.010938692
0.010535417
0.010183268
0.009880853
0.0096266029
0.0094196641
0.0092563944
0.0091372502
0.0090552499
0.0090126759
0.0090080794
0.0090358697
0.0090937886
0.0091792066
0.0092886927
0.0094234633
0.0095689646
0.0097169962
0.024647682
0.024657694
0.024663244
0.024664678
0.024663086
0.024657892
0.024654623
0.024651795
0.024692006
0.024689033
0.024682639
0.024673368
0.024662321
0.024648858
0.024632144
0.024611198
0.02458519
0.02455182
0.02451051
0.024461176
0.024403468
0.024337089
0.024261576
0.024176459
0.024081091
0.023974698
0.023856403
0.023725237
0.02358018
0.023420176
0.023244323
0.023052064
0.022842257
0.022613752
0.022365503
0.022096614
0.021806375
0.021494191
0.021159694
0.020802529
0.020422329
0.0200192
0.01959129
0.019140127
0.018658715
0.018149452
0.017603984
0.017026546
0.016425059
0.01580247
0.015167783
0.014537598
0.013929654
0.013352075
0.012814325
0.012321626
0.011877509
0.011482778
0.011136725
0.01083723
0.010583481
0.010373714
0.010206391
0.010079274
0.0099919073
0.0099391818
0.0099241232
0.0099420102
0.0099899691
0.010065396
0.010170832
0.010289081
0.010410342
0.010533054
0.010657386
0.024679835
0.024689696
0.024695881
0.024698658
0.024698944
0.024695988
0.024695608
0.02469593
0.024726542
0.024726033
0.024722054
0.024715222
0.02470697
0.024696885
0.024684323
0.024668476
0.024648667
0.024622753
0.024590102
0.024550507
0.024503549
0.024448912
0.024386182
0.024314981
0.024234811
0.024145087
0.02404515
0.023934265
0.023811645
0.023676447
0.02352794
0.023365679
0.023188659
0.02299583
0.02278619
0.02255881
0.022312867
0.022047637
0.021762542
0.021457085
0.021130801
0.02078347
0.020414197
0.020023126
0.019607802
0.019170422
0.018703915
0.018211672
0.017686022
0.017132364
0.016560849
0.015978496
0.015397707
0.014830063
0.014286222
0.013775884
0.013305427
0.012879245
0.012498521
0.012162732
0.011870991
0.011622703
0.011415449
0.011248547
0.011121038
0.01103066
0.010977397
0.010957391
0.010970426
0.011013987
0.011090767
0.011181873
0.011276206
0.011372252
0.011470103
0.024701704
0.024711102
0.02471763
0.024721473
0.024723406
0.02472246
0.024724769
0.024728048
0.024747024
0.024748761
0.024747015
0.024742473
0.024736883
0.024730062
0.024721554
0.024710729
0.024697054
0.02467854
0.024654479
0.024624511
0.024588115
0.024544924
0.024494526
0.024436594
0.024370725
0.024296477
0.02421336
0.024120835
0.024018317
0.023905163
0.023780811
0.023644946
0.023496722
0.023335233
0.023159584
0.0229689
0.022762354
0.02253918
0.022298698
0.022040303
0.021763438
0.021467677
0.021152416
0.020817292
0.02046117
0.020084737
0.019686025
0.019267197
0.018822077
0.018354019
0.017857803
0.017338484
0.016807091
0.016277788
0.015756646
0.015254118
0.014778686
0.01433746
0.013934388
0.013572412
0.013251926
0.012973469
0.012734554
0.012535024
0.012374219
0.01225097
0.012164426
0.012112674
0.012095249
0.01210919
0.012158341
0.0122235
0.012292
0.01236189
0.012433916
0.024711689
0.024720264
0.024726803
0.024731407
0.024734715
0.024735528
0.024740301
0.024746333
0.024751274
0.024755029
0.024755314
0.024752888
0.024749811
0.024746134
0.024741592
0.024735728
0.024728155
0.024717028
0.024701546
0.024681176
0.024655266
0.024623368
0.024585036
0.024539955
0.024487778
0.024428153
0.024360717
0.024285081
0.024200825
0.024107481
0.024004641
0.023892121
0.023769242
0.023635259
0.023489415
0.023330943
0.023159085
0.022973104
0.022772309
0.022556053
0.022323731
0.022074806
0.02180873
0.021524967
0.021222784
0.02090236
0.020563192
0.020205939
0.019828929
0.019433438
0.019016923
0.018580632
0.018123988
0.017651328
0.017173696
0.016699774
0.016242311
0.015807778
0.015401645
0.015028418
0.01469058
0.014391295
0.014129702
0.013905428
0.013718423
0.013568202
0.013454133
0.013374935
0.013330496
0.013318205
0.013341506
0.013382033
0.013426004
0.013471805
0.013519587
0.024707811
0.024715154
0.024721337
0.024726371
0.024730759
0.024733059
0.024740047
0.024748615
0.02473667
0.024742218
0.024744321
0.024743824
0.0247431
0.024742442
0.024741781
0.024740835
0.024739353
0.024735637
0.024728777
0.024718042
0.024702631
0.024681987
0.024655605
0.024623149
0.02458429
0.024538728
0.024486183
0.024426371
0.024359002
0.024283744
0.024200321
0.024108667
0.024008264
0.02389853
0.023778859
0.023648614
0.023507147
0.023353802
0.023187938
0.023008932
0.022816181
0.022609115
0.022387194
0.022149832
0.021896406
0.021626899
0.021341223
0.021039636
0.020721822
0.020388085
0.020037798
0.019670977
0.019289243
0.01889185
0.01848536
0.018068456
0.017651976
0.017244287
0.016853027
0.016484395
0.016143296
0.015834134
0.015560446
0.01532107
0.015116182
0.014946013
0.014810455
0.014709082
0.014641073
0.014605798
0.014605726
0.014623077
0.01464414
0.014667295
0.014692629
0.024687566
0.024693226
0.024698658
0.024703778
0.024708938
0.024712458
0.024721377
0.024732271
0.024700059
0.024707179
0.024710887
0.024712129
0.024713594
0.024715834
0.024718978
0.024722918
0.024727544
0.024731299
0.024733147
0.024732144
0.024727318
0.024717984
0.024703557
0.024683652
0.024657929
0.02462611
0.024587959
0.024543259
0.024491808
0.024433378
0.024367792
0.024295082
0.024214874
0.024126741
0.024030221
0.023924818
0.023810006
0.02368524
0.023549966
0.023403627
0.023245671
0.023075553
0.022892757
0.022696702
0.022486811
0.022262976
0.022025172
0.021773539
0.021508145
0.021229205
0.020936832
0.020630791
0.020311862
0.019979991
0.019638374
0.019287944
0.018935167
0.01857986
0.018230063
0.017890651
0.01756767
0.017265311
0.016990605
0.016745966
0.016531726
0.016348911
0.016198039
0.01607914
0.015991356
0.015934786
0.015913492
0.015908697
0.015908956
0.015911573
0.015916677
0.024647746
0.024651249
0.024655531
0.024660398
0.024666031
0.024670539
0.024680997
0.024694127
0.024637671
0.024646124
0.024651227
0.024654025
0.024657527
0.024662555
0.024669445
0.024678267
0.024689044
0.024700366
0.024711056
0.024719935
0.024725845
0.024727956
0.024725585
0.024718279
0.024705667
0.024687463
0.024663445
0.024633434
0.024597281
0.024554824
0.024505956
0.02445078
0.024389044
0.024320454
0.024244687
0.024161375
0.024070119
0.02397049
0.023862039
0.023744302
0.023616803
0.023479062
0.023330616
0.023170931
0.022999474
0.022816095
0.022620753
0.022413504
0.022194493
0.021963933
0.021722104
0.021469161
0.021205567
0.020931566
0.020648618
0.020358048
0.020062484
0.019762752
0.019465108
0.019170236
0.018884045
0.018609958
0.018352815
0.018117431
0.017906919
0.017722179
0.017564715
0.017435479
0.017334826
0.017262447
0.017223012
0.017199533
0.017181849
0.017166759
0.017154286
0.017142781
0.017133886
0.017127382
0.024592212
0.024598052
0.024603391
0.024614654
0.024630494
0.024544802
0.02455444
0.02456078
0.024564985
0.0245704
0.024578138
0.024588746
0.024602478
0.024619492
0.024638519
0.024658231
0.024677195
0.024694052
0.024707814
0.024717683
0.024723126
0.024723721
0.024719155
0.024709201
0.024693688
0.024672492
0.024645488
0.024612611
0.024574004
0.024529513
0.024478961
0.024422136
0.024358791
0.024288642
0.02421137
0.024126635
0.024034074
0.0239333
0.023823918
0.023705536
0.023577696
0.023439923
0.023292059
0.023134037
0.022965877
0.022787688
0.022599668
0.02240209
0.022195258
0.021979634
0.02175566
0.021524006
0.021286524
0.021044068
0.020797925
0.020550438
0.020302973
0.020060466
0.019823424
0.019596492
0.019383113
0.019188529
0.01901381
0.018860869
0.01873125
0.018625918
0.018545871
0.018493209
0.018456131
0.018424137
0.01839485
0.018368094
0.018343479
0.01832109
0.018300914
0.024494301
0.024500146
0.024506202
0.024518021
0.024536501
0.024415951
0.024426674
0.024434141
0.024439643
0.02444689
0.024457303
0.024471648
0.024490364
0.024513744
0.024540664
0.024569628
0.024598935
0.02462701
0.02465269
0.024675057
0.024693481
0.024707479
0.024716698
0.024720885
0.024719861
0.024713504
0.024701702
0.024684408
0.024661779
0.024633735
0.024600195
0.024561038
0.024516121
0.024465254
0.024408229
0.024344794
0.024274696
0.024197623
0.024113283
0.024021367
0.023921482
0.023813246
0.023696512
0.02357119
0.02343728
0.023294837
0.023144044
0.022985168
0.022818494
0.022644441
0.022463661
0.022276328
0.022084251
0.021888117
0.02168896
0.021488022
0.021286512
0.021086564
0.02088987
0.020698988
0.020516361
0.020345014
0.020189176
0.020049602
0.019928067
0.019825856
0.019744669
0.019686028
0.019639756
0.019597565
0.019558296
0.01952106
0.019485882
0.01945279
0.019421778
0.024360792
0.024366522
0.024373254
0.024385707
0.024406597
0.024244784
0.024256484
0.024265002
0.024271729
0.024280782
0.024293894
0.02431205
0.024335875
0.024365801
0.02440085
0.024439348
0.024479305
0.02451892
0.024556846
0.02459203
0.024623741
0.024651421
0.024674667
0.02469319
0.024706786
0.024715324
0.024718685
0.024716813
0.024709876
0.024697835
0.024680694
0.024658403
0.024630883
0.024598082
0.024559815
0.024515987
0.024466427
0.024410841
0.0243491
0.024280871
0.024205982
0.024124069
0.024035061
0.02393868
0.023835098
0.023724345
0.02360647
0.023481894
0.02335058
0.023212918
0.02306937
0.022920376
0.022766803
0.022610036
0.022450921
0.022290313
0.0221291
0.02196846
0.021809691
0.021654199
0.021504642
0.021360921
0.021227435
0.021106649
0.02099897
0.020905695
0.020828379
0.02076923
0.020718749
0.020668948
0.020621525
0.020576393
0.020533415
0.020492544
0.020453675
0.024184867
0.024190456
0.024197918
0.024211342
0.02423445
0.024027738
0.024040172
0.024049697
0.024057634
0.024068517
0.024084375
0.02410641
0.024135436
0.024172021
0.024215339
0.024263528
0.024314305
0.024365633
0.024415971
0.02446413
0.024509266
0.024550743
0.024588101
0.024621005
0.024649217
0.024672581
0.024690968
0.024704294
0.024712719
0.024716243
0.024714889
0.024708761
0.024697769
0.024681998
0.024661263
0.024635651
0.024604844
0.024569019
0.024527675
0.024480975
0.024428695
0.024370174
0.024305743
0.024235364
0.024158856
0.024076292
0.023987688
0.023893151
0.023792871
0.023687782
0.023577412
0.023462373
0.023343228
0.023221484
0.02309622
0.02296926
0.022841394
0.022713497
0.022586549
0.022461595
0.022340047
0.022222961
0.022111492
0.022008529
0.021914671
0.021830901
0.021758735
0.021699798
0.021647763
0.021596027
0.021545647
0.02149738
0.021451091
0.021406713
0.021363996
0.023962578
0.023968094
0.023976404
0.023991018
0.02401702
0.02376801
0.023781183
0.023791771
0.023800971
0.023813723
0.023832334
0.023858225
0.023892399
0.023935558
0.023987025
0.024044758
0.024106183
0.024169028
0.024231564
0.024292461
0.024350764
0.024405754
0.024456907
0.024503843
0.02454628
0.024584024
0.024616942
0.024644905
0.024668034
0.024686376
0.024699971
0.024708994
0.024713411
0.024713352
0.024708705
0.024699625
0.024685781
0.024667538
0.024644335
0.024616557
0.024583472
0.024545492
0.024502271
0.024454096
0.024400049
0.024340897
0.024276584
0.024207692
0.024133711
0.024054806
0.023971602
0.023885226
0.023795212
0.023701996
0.023606262
0.023508932
0.023409723
0.023309481
0.023209059
0.023109301
0.023011138
0.022915508
0.022823349
0.022735605
0.022654792
0.022581623
0.022517368
0.022463281
0.022414889
0.022367799
0.022321526
0.022276224
0.022231979
0.022188963
0.02214712
0.023697524
0.0237031
0.023712337
0.023728024
0.023311761
0.023469869
0.023484073
0.023495875
0.023506432
0.023521096
0.02354244
0.023572105
0.023611282
0.023660806
0.023720147
0.023787093
0.023858791
0.023932749
0.024007052
0.024080236
0.024151235
0.024219247
0.024283686
0.024344119
0.024400222
0.024451754
0.02449853
0.024540415
0.024577431
0.024609678
0.024637254
0.024660193
0.024678717
0.024692738
0.024702553
0.024707925
0.024709187
0.024705949
0.024698605
0.024686649
0.024670145
0.024649081
0.02462304
0.024592178
0.024556681
0.024516182
0.024470824
0.024420539
0.024366048
0.024306807
0.024243746
0.024176921
0.024107223
0.024035251
0.02396211
0.023887082
0.023810981
0.023734084
0.023656902
0.023580015
0.023504056
0.023429714
0.023357684
0.02328861
0.023224576
0.023166423
0.023114534
0.023071991
0.023033308
0.022994938
0.022956712
0.022918762
0.022881206
0.02284412
0.022807451
0.023394524
0.023400301
0.0234105
0.02342695
0.022570989
0.023135165
0.023150579
0.023163719
0.023175723
0.02319234
0.023216395
0.023249744
0.023293761
0.023349413
0.023416318
0.023492103
0.023573658
0.023658282
0.023743882
0.023828866
0.023912061
0.023992586
0.02406979
0.024143186
0.024212409
0.024277182
0.024337264
0.0243925
0.024442855
0.024488413
0.024529299
0.024565484
0.024597179
0.024624207
0.02464689
0.024664922
0.024678777
0.024688033
0.024693299
0.024694074
0.024690871
0.02468321
0.024671052
0.024654367
0.024633897
0.024608899
0.024579551
0.024545208
0.024507037
0.024464994
0.024419435
0.024369764
0.024317314
0.024263229
0.024207763
0.024150364
0.024092392
0.024034051
0.023975678
0.023917689
0.023860561
0.02380483
0.023751061
0.023699767
0.023651831
0.023608045
0.023568511
0.023536267
0.023506785
0.023477298
0.023447728
0.023418158
0.023388681
0.023359291
0.023329832
0.023055462
0.023061555
0.023072752
0.023089775
0.021899616
0.022766319
0.022782939
0.022797446
0.022810926
0.022829498
0.022856213
0.022893127
0.022941793
0.023003304
0.023077421
0.02316163
0.023252578
0.023347371
0.023443751
0.023540005
0.023634856
0.023727346
0.023816762
0.023902563
0.023984339
0.024061778
0.024134616
0.024202639
0.024265805
0.024324171
0.02437788
0.024426986
0.024471584
0.024511626
0.024547178
0.024578131
0.024604593
0.024626458
0.02464392
0.02465695
0.024665738
0.024670287
0.024670624
0.024666738
0.024658941
0.024647211
0.024631643
0.02461206
0.024588737
0.02456184
0.024531682
0.024498247
0.024461923
0.024423392
0.024383204
0.024341495
0.024298761
0.02425541
0.024211837
0.024168435
0.024125611
0.024083803
0.024043466
0.024005028
0.023969035
0.023936069
0.023905971
0.023881542
0.02385911
0.023836542
0.023813827
0.023791003
0.02376812
0.023745216
0.023722284
0.022682604
0.022689092
0.022701314
0.022718843
0.021281365
0.022365913
0.022383653
0.022399478
0.022414404
0.022434883
0.022464163
0.022504488
0.022557574
0.022624633
0.022705569
0.02279774
0.02289757
0.023001987
0.023108581
0.023215526
0.023321449
0.023425315
0.023526352
0.023623968
0.023717704
0.02380721
0.02389219
0.023972385
0.024047718
0.024118257
0.024184162
0.024245559
0.024302565
0.02435523
0.024403603
0.024447653
0.02448738
0.02452271
0.024553643
0.024580152
0.02460227
0.024619982
0.024633325
0.024642314
0.024647132
0.02464791
0.024644824
0.024637927
0.024627396
0.024613416
0.024596252
0.024576028
0.024552998
0.02452763
0.024500346
0.024471441
0.024441299
0.024410294
0.024378797
0.024347171
0.024315777
0.024284991
0.024255187
0.024226729
0.024199993
0.024175462
0.024152706
0.024134291
0.024117254
0.024100005
0.024082599
0.024065051
0.024047378
0.024029603
0.024011733
0.022278431
0.02228536
0.022298613
0.022316627
0.020703848
0.02193652
0.021955304
0.021972379
0.021988685
0.022010984
0.022042699
0.022086241
0.022143479
0.022215736
0.022303057
0.022402683
0.022510838
0.022624289
0.022740483
0.022857495
0.022973859
0.023088471
0.023200499
0.023309302
0.023414375
0.023515325
0.023611823
0.023703566
0.023790435
0.023872499
0.02394993
0.024022887
0.024091514
0.02415592
0.024216194
0.024272382
0.024324513
0.024372573
0.024416542
0.024456386
0.02449207
0.0245235
0.024550613
0.024573336
0.024591687
0.024605736
0.024615616
0.024621463
0.024623445
0.02462177
0.024616702
0.024608457
0.024597277
0.024583544
0.024567609
0.024549805
0.024530476
0.024509964
0.024488615
0.024466763
0.024444733
0.024422854
0.024401446
0.024380815
0.024361244
0.024343333
0.024326038
0.024312022
0.024298882
0.024285472
0.024271903
0.024258172
0.02424428
0.024230235
0.024216043
0.021845514
0.021852899
0.021867169
0.021885652
0.02015943
0.021480645
0.021500526
0.021518771
0.021536379
0.02156039
0.021594382
0.021640916
0.021702005
0.021779076
0.021872308
0.021978844
0.022094725
0.022216577
0.022341719
0.022468132
0.022594266
0.022718951
0.022841303
0.022960629
0.023076381
0.023188125
0.023295494
0.023398147
0.023495913
0.023588863
0.023677175
0.023761024
0.02384057
0.023915953
0.023987292
0.024054678
0.024118184
0.024177849
0.024233695
0.024285734
0.024333955
0.024378273
0.024418582
0.024454757
0.02448671
0.024514394
0.02453782
0.024557044
0.024572157
0.0245833
0.024590675
0.024594492
0.024594983
0.024592497
0.024587351
0.024579896
0.024570471
0.024559413
0.024547057
0.02453372
0.024519709
0.024505319
0.024490833
0.024476516
0.024462601
0.024449427
0.024436341
0.024425464
0.024414956
0.02440409
0.024393041
0.024381803
0.024370373
0.024358751
0.02434694
0.021386423
0.021394263
0.021409523
0.021428452
0.019643149
0.021000834
0.021021918
0.021041256
0.02106009
0.0210857
0.021121799
0.021171087
0.02123571
0.021317184
0.021415823
0.021528689
0.021651667
0.021781254
0.021914656
0.022049769
0.022184967
0.02231902
0.022450992
0.022580145
0.022705888
0.022827745
0.022945316
0.023058215
0.023166226
0.023269415
0.023367963
0.023462055
0.02355186
0.023637534
0.023719214
0.023797021
0.023871053
0.023941389
0.024008089
0.024071201
0.024130758
0.024186709
0.024238951
0.024287356
0.024331808
0.024372218
0.024408523
0.024440706
0.024468769
0.024492757
0.024512767
0.024528917
0.024541356
0.024550348
0.024556156
0.024559094
0.024559484
0.024557647
0.024553905
0.024548565
0.02454192
0.02453425
0.024525813
0.024516847
0.02450755
0.02449818
0.024488137
0.024479285
0.024470321
0.02446092
0.024451315
0.024441502
0.024431479
0.024421245
0.024410803
0.02090368
0.020911953
0.020928179
0.020947543
0.019151661
0.020499797
0.020521995
0.020542421
0.020562434
0.020589515
0.020627532
0.020679318
0.02074714
0.020832593
0.020936127
0.021054722
0.021184143
0.021320778
0.021461726
0.02160481
0.02174834
0.021891028
0.022031891
0.022170147
0.022305165
0.022436431
0.022563508
0.022685971
0.022803557
0.022916324
0.023024456
0.02312814
0.023227554
0.023322859
0.023414209
0.023501735
0.023585559
0.023665783
0.023742491
0.023815763
0.023885667
0.023952182
0.024015215
0.024074637
0.02413033
0.024182187
0.024230122
0.024274077
0.02431401
0.024349904
0.024381776
0.024409662
0.024433614
0.024453789
0.024470365
0.02448359
0.024493724
0.024501037
0.024505806
0.024508304
0.024508793
0.024507527
0.024504739
0.024500645
0.024495415
0.02448928
0.024481671
0.024474169
0.024466078
0.024457483
0.024448675
0.024439653
0.024430415
0.024420965
0.024411303
0.020399789
0.020408414
0.020425636
0.020445457
0.01868257
0.019980173
0.020003323
0.020024952
0.020046053
0.020074406
0.020114136
0.020168148
0.020238815
0.020327802
0.020435711
0.020559427
0.020694635
0.020837622
0.020985385
0.021135696
0.021286809
0.02143738
0.021586384
0.021733
0.021876558
0.022016508
0.022152376
0.022283703
0.022410177
0.022531847
0.022648898
0.022761519
0.022869888
0.022974174
0.023074537
0.023171119
0.023264053
0.023353456
0.023439432
0.023522082
0.023601498
0.023677687
0.02375056
0.023819989
0.023885852
0.023948036
0.024006439
0.02406098
0.024111589
0.024158208
0.0242008
0.024239344
0.024273816
0.02430428
0.024330847
0.024353693
0.024373014
0.024389015
0.024401911
0.024411919
0.024419252
0.024424119
0.024426715
0.024427222
0.024425785
0.024422619
0.024417283
0.024410778
0.024403276
0.024395228
0.024386962
0.024378475
0.024369767
0.024360839
0.024351695
0.019876855
0.019886284
0.019904493
0.019924834
0.018233986
0.019444535
0.019468388
0.019491763
0.019513531
0.019542802
0.019584092
0.019640052
0.019713193
0.019805242
0.019917019
0.020045201
0.020185593
0.020334265
0.020488087
0.020644863
0.020802818
0.020960512
0.021116892
0.021271112
0.021422462
0.021570355
0.021714288
0.021853764
0.021988426