/*--------------------------------*- C++ -*----------------------------------*\
| =========                 |                                                 |
| \\      /  F ield         | OpenFOAM: The Open Source CFD Toolbox           |
|  \\    /   O peration     | Version:  2.4.0                                 |
|   \\  /    A nd           | Web:      www.OpenFOAM.org                      |
|    \\/     M anipulation  |                                                 |
\*---------------------------------------------------------------------------*/
FoamFile
{
    version     2.0;
    format      ascii;
    class       volScalarField;
    location    "360";
    object      k;
}
// * * * * * * * * * * * * * * * * * * * * * * * * * * * * * * * * * * * * * //

dimensions      [0 2 -2 0 0 0 0];

internalField   nonuniform List<scalar> 
19477
(
0.030598159
0.030559591
0.030522438
0.030500728
0.030505807
0.030547849
0.030633846
0.03076839
0.030952348
0.031181438
0.031443335
0.031723226
0.032007863
0.032285663
0.032546658
0.032781958
0.032983701
0.033144918
0.033259488
0.033322255
0.033329189
0.033277561
0.033166108
0.032995156
0.032766467
0.032482908
0.032148323
0.031767598
0.031346842
0.030893886
0.030418958
0.029934938
0.029456318
0.028997723
0.02857298
0.028194743
0.041344571
0.041072886
0.040782084
0.040471021
0.040138581
0.039783724
0.039405556
0.039003403
0.038576904
0.038126185
0.037652246
0.037158299
0.036648936
0.036129178
0.035604255
0.035079488
0.034560105
0.034050678
0.03355519
0.033078671
0.032622825
0.032198126
0.031815598
0.031487294
0.031222894
0.031022185
0.030878789
0.030783219
0.030725082
0.030691201
0.030672002
0.03065472
0.03063586
0.029897127
0.029867675
0.02984092
0.02982903
0.029843665
0.029894883
0.029989946
0.030133751
0.030327667
0.030568024
0.030843173
0.031138937
0.031442633
0.031743165
0.032031007
0.032297642
0.032535516
0.032737881
0.032898731
0.033012882
0.033076117
0.033085337
0.033038717
0.032935868
0.032777793
0.03256649
0.032304777
0.031996301
0.031645615
0.031258414
0.030842005
0.030405876
0.029961685
0.029522319
0.029100767
0.028709433
0.028359944
0.028063182
0.027827959
0.027660623
0.027564559
0.027539862
0.027583242
0.040501021
0.040204936
0.039891733
0.039560414
0.039210023
0.038839699
0.03844874
0.03803666
0.037603281
0.037148882
0.036674565
0.036183533
0.035680245
0.03516947
0.034656056
0.03414484
0.033640532
0.033147357
0.032669136
0.032208808
0.031770013
0.031362365
0.030996295
0.030683266
0.030432523
0.030243835
0.030111051
0.03002508
0.029975923
0.029950904
0.029940588
0.029932638
0.029923794
0.029180341
0.029159828
0.029142379
0.0291392
0.029162234
0.029221377
0.029324076
0.02947548
0.029677403
0.029926756
0.03021257
0.03052132
0.03084091
0.031160752
0.031471772
0.031765841
0.032035734
0.032274948
0.032477627
0.032638612
0.032753563
0.032819095
0.032832918
0.032794049
0.032702856
0.032560629
0.032369358
0.03213172
0.031851105
0.031531707
0.03117878
0.030799055
0.030401177
0.029995555
0.02959359
0.029206829
0.028846587
0.028523811
0.028248299
0.028028284
0.027869885
0.027776765
0.027749879
0.039580309
0.039264565
0.038933761
0.038587025
0.038223544
0.037842609
0.037443676
0.037026413
0.036590778
0.036137153
0.035666681
0.035182489
0.034688835
0.034190182
0.033690976
0.033195586
0.032708232
0.032232905
0.031773649
0.031330429
0.030909464
0.030519442
0.030170148
0.029872458
0.02963519
0.029458113
0.029335332
0.029258174
0.029217062
0.029199857
0.029197306
0.029197572
0.029197689
0.028450353
0.028438004
0.028428896
0.028433379
0.028463663
0.028529469
0.028638359
0.028795686
0.029003655
0.029259721
0.029553588
0.029872409
0.030204687
0.030540357
0.030870813
0.03118833
0.031486025
0.031757669
0.031997588
0.032200697
0.032362593
0.032479681
0.032549303
0.032569976
0.03254154
0.032464693
0.032340748
0.032171601
0.031959737
0.031708254
0.031420973
0.031102665
0.030759444
0.030399058
0.030030722
0.029664507
0.029310831
0.028980132
0.028682274
0.028426174
0.028219423
0.028067845
0.027975304
0.038587881
0.03825748
0.037914075
0.037556903
0.037185273
0.036798601
0.03639647
0.035978663
0.035545231
0.035096612
0.034633937
0.034160197
0.0336794
0.033195673
0.032713063
0.032235519
0.031766782
0.031310505
0.030870821
0.030446076
0.030043729
0.029671809
0.029339498
0.029057115
0.02883307
0.028667153
0.028553749
0.02848462
0.028450632
0.028440211
0.028444331
0.028451699
0.028459662
0.027709578
0.027704441
0.027702699
0.027713823
0.027750224
0.02782144
0.027935086
0.02809667
0.028308735
0.02856924
0.028868563
0.029194537
0.029536284
0.029884275
0.030230381
0.030567297
0.030888499
0.031188054
0.031460503
0.031700876
0.031904772
0.032068454
0.032188977
0.032264457
0.032294292
0.032278685
0.032218381
0.032114637
0.031969208
0.031784352
0.031562865
0.031308171
0.031024555
0.030717482
0.030393811
0.030061643
0.029729973
0.029408266
0.029105847
0.028831555
0.028593449
0.028398471
0.028252172
0.037530667
0.037190745
0.036839814
0.036477203
0.036102321
0.035714684
0.03531397
0.034900041
0.034473005
0.034033308
0.033582028
0.033121976
0.032656878
0.03219051
0.031726546
0.031268554
0.030819823
0.030383541
0.029963682
0.029558603
0.029175506
0.028821992
0.028506725
0.028239507
0.028028358
0.027873109
0.027768443
0.027706565
0.027678801
0.027674164
0.027683891
0.02769727
0.027711971
0.026960406
0.026961491
0.026966127
0.026982883
0.027024291
0.027099688
0.027216682
0.027380891
0.02759514
0.027857854
0.028160071
0.028490317
0.028838337
0.029195151
0.029553115
0.029905356
0.030245723
0.030568599
0.030868771
0.031141428
0.031382218
0.031587336
0.031753631
0.031878901
0.031962184
0.032003271
0.032002431
0.031960384
0.031878288
0.031757725
0.031600711
0.031409723
0.031187796
0.030938728
0.030667339
0.030379635
0.030082788
0.029784883
0.029494248
0.029219147
0.028967441
0.028746393
0.028562324
0.036417046
0.036072724
0.035719273
0.035356097
0.034982682
0.034598623
0.03420366
0.033797705
0.033380885
0.032953623
0.03251691
0.032073348
0.031626362
0.031179384
0.030735732
0.030298635
0.029870987
0.029455546
0.029055996
0.028671122
0.028307559
0.027972519
0.027674189
0.027421877
0.027223226
0.027078117
0.026981539
0.02692615
0.026903741
0.026903927
0.026918237
0.02693657
0.026956934
0.026205217
0.026211546
0.026221583
0.026242979
0.026288312
0.026366697
0.026485678
0.026650935
0.02686552
0.027128284
0.027430907
0.027762613
0.028113773
0.02847596
0.028842024
0.02920553
0.029560715
0.029902294
0.030225325
0.030525193
0.030797648
0.031038878
0.031245603
0.031415385
0.03154698
0.031639841
0.031693842
0.031709253
0.031686727
0.031627294
0.031532348
0.03140365
0.031243368
0.031054154
0.030839327
0.030603089
0.030350708
0.030088552
0.029823677
0.02956337
0.029314898
0.029085236
0.02888085
0.035256716
0.034912944
0.034561758
0.03420262
0.033835077
0.033458777
0.0330735
0.03267918
0.032275933
0.031864136
0.031444671
0.031019913
0.030592986
0.03016699
0.029744913
0.02932967
0.028923909
0.028530208
0.028151156
0.027786579
0.027442521
0.027125805
0.026844153
0.026606385
0.02641977
0.026284243
0.026195108
0.026145467
0.026127583
0.02613168
0.026149602
0.026171882
0.02619688
0.025446359
0.025456988
0.025471476
0.025496553
0.025544769
0.025625
0.025744671
0.025909474
0.026122639
0.026383393
0.026684043
0.027014503
0.027365773
0.027729978
0.028100465
0.02847124
0.028836937
0.029192617
0.029533633
0.029855596
0.030154405
0.030426298
0.030667935
0.030876724
0.031051211
0.031190584
0.031294397
0.031362542
0.031395252
0.031393092
0.031356946
0.031288009
0.031187793
0.031058158
0.030901397
0.030720384
0.030518774
0.030301174
0.030073088
0.029840589
0.029610026
0.029387736
0.029179857
0.034060474
0.033721867
0.033377354
0.033026445
0.03266873
0.032303889
0.031931723
0.031552165
0.031165303
0.030771449
0.030371365
0.0299672
0.029561782
0.029157904
0.028758259
0.028365454
0.027982082
0.027611117
0.027252108
0.026907574
0.026582777
0.026284077
0.026018724
0.025795052
0.025619962
0.025493445
0.025411116
0.025366517
0.02535238
0.025359532
0.02538016
0.025405441
0.025434103
0.024686103
0.024700141
0.024718173
0.02474602
0.024796132
0.024877133
0.024996277
0.02515922
0.025369322
0.025626137
0.025922577
0.026249234
0.026597728
0.026960737
0.027332097
0.027706261
0.028078259
0.028443514
0.028797685
0.029136641
0.029456465
0.029753498
0.030024409
0.030266519
0.030478238
0.030658561
0.030806789
0.030922509
0.031005608
0.03105626
0.031074922
0.031062324
0.031019465
0.030947616
0.030848349
0.030723621
0.03057589
0.030408299
0.030224802
0.03003008
0.029829344
0.029628047
0.02943167
0.032839896
0.032510575
0.032176622
0.031837584
0.031493078
0.031142805
0.03078657
0.030424289
0.030056011
0.029681976
0.029302828
0.028920493
0.028537521
0.028156433
0.027779667
0.027409524
0.027048485
0.026699901
0.026361042
0.026036302
0.025730431
0.025449333
0.025199808
0.024989722
0.024825614
0.024707529
0.02463139
0.024591169
0.024580057
0.024589482
0.024611983
0.024639392
0.024670814
0.023926606
0.023943223
0.023963952
0.023993717
0.024044808
0.024125581
0.024243078
0.024402876
0.024608408
0.024859515
0.025149679
0.025470159
0.02581318
0.026171964
0.026540829
0.026914669
0.027288915
0.02765935
0.028021957
0.02837288
0.028708421
0.029025068
0.029319555
0.029589187
0.029832302
0.030047766
0.030234697
0.030392451
0.030520633
0.030619097
0.030687946
0.030727522
0.030738404
0.030721399
0.03067755
0.030608167
0.030514866
0.030399686
0.030265293
0.03011502
0.029952844
0.029783194
0.029610702
0.034630621
0.034345473
0.034054079
0.033757569
0.033456993
0.033153326
0.032847458
0.032540091
0.032231227
0.03192036
0.03160692
0.031290367
0.030970209
0.030646017
0.030317429
0.029984153
0.02964599
0.029302831
0.028954683
0.028601713
0.028244456
0.027884629
0.027524528
0.027166435
0.026812565
0.026464998
0.026126049
0.025798553
0.025480001
0.025174765
0.024887369
0.024623349
0.024389097
0.02419203
0.024038336
0.023928112
0.023857578
0.023821122
0.023812382
0.023823372
0.023846995
0.023875741
0.023909099
0.023169858
0.023188298
0.023210945
0.023241849
0.023293083
0.023372728
0.023487571
0.02364307
0.023842687
0.024086498
0.024368527
0.024680675
0.025015755
0.025367516
0.025730749
0.026100779
0.026473431
0.026844851
0.027211351
0.027569366
0.027915441
0.028246248
0.028558637
0.028849956
0.029118528
0.029363155
0.029582837
0.029776765
0.02994433
0.030085136
0.030198995
0.030285931
0.030346175
0.030380154
0.030388497
0.030372038
0.030331785
0.030268987
0.030185338
0.03008307
0.029965005
0.029834445
0.029695083
0.033281848
0.033004695
0.032722168
0.03243537
0.032145316
0.031852934
0.03155907
0.03126438
0.030968859
0.030672024
0.030373335
0.030072281
0.029768397
0.029461275
0.029150566
0.028835981
0.02851731
0.028194423
0.027867281
0.027535992
0.027200992
0.026863809
0.026526512
0.026191176
0.025859805
0.025534467
0.025217749
0.024910088
0.024611151
0.02432478
0.024055216
0.023807631
0.023588024
0.023403369
0.023259509
0.023156589
0.023091112
0.023057866
0.023050917
0.023062849
0.023086936
0.023116316
0.023150869
0.022417639
0.022437225
0.022461092
0.022492439
0.022543073
0.022620795
0.022732106
0.022882306
0.02307484
0.023309975
0.02358224
0.023884151
0.024209086
0.024551302
0.024906045
0.025269057
0.025636549
0.026005022
0.02637112
0.026731576
0.027083198
0.027422871
0.027747601
0.028054827
0.028342912
0.028610647
0.028856977
0.029080988
0.029281928
0.029459212
0.029612429
0.029741349
0.029845919
0.029926259
0.029982658
0.030015574
0.030025565
0.030013293
0.029979732
0.029926291
0.029854844
0.029767694
0.029667579
0.031912014
0.03164693
0.031377178
0.031103813
0.030827795
0.030549999
0.03027121
0.029992036
0.029712461
0.029432027
0.029150223
0.028866567
0.028580618
0.028291987
0.028000336
0.02770538
0.027406899
0.027104742
0.02679884
0.026489247
0.026176319
0.025861416
0.025546416
0.025233216
0.024923641
0.024619843
0.024324751
0.024036098
0.023755951
0.023487689
0.023235225
0.023003368
0.022797732
0.022624861
0.02249026
0.02239411
0.022333186
0.022302654
0.022296992
0.022309331
0.022333313
0.022362721
0.022397821
0.021671474
0.021691617
0.021716089
0.021747274
0.021796669
0.021871792
0.02197883
0.022122893
0.02230737
0.022532675
0.022793803
0.023083851
0.023396736
0.023727198
0.024070917
0.024424033
0.024783128
0.02514505
0.02550677
0.025865321
0.026217782
0.026561274
0.02689299
0.027210503
0.027512257
0.027797079
0.02806391
0.028311794
0.028539895
0.028747504
0.028934052
0.029099114
0.029242418
0.029363836
0.029463385
0.029541219
0.029597541
0.029632569
0.029646743
0.029640846
0.029616011
0.029573747
0.029515937
0.030540578
0.030290615
0.030036528
0.029779308
0.029519846
0.02925895
0.028997339
0.028735568
0.028473611
0.028211036
0.027947365
0.027682144
0.027414957
0.027145435
0.026873254
0.026598135
0.026319857
0.026038255
0.025753238
0.025464822
0.025173298
0.024879887
0.024586309
0.024294318
0.024005722
0.023722877
0.023447529
0.023177436
0.022915348
0.022664426
0.022428292
0.022211424
0.022019065
0.021857346
0.021731439
0.021641556
0.021584728
0.021556477
0.021551673
0.021563969
0.021587374
0.021616297
0.02165139
0.020932587
0.020952788
0.020977344
0.021007859
0.021055485
0.021127457
0.021229629
0.021366895
0.021542549
0.02175711
0.022006
0.022282863
0.022582119
0.022898966
0.023229488
0.023570205
0.023918052
0.024270206
0.024623954
0.024976629
0.025325585
0.025668189
0.026001845
0.026324291
0.026634083
0.026930124
0.027211395
0.027476948
0.027725919
0.027957536
0.02817113
0.028366148
0.028542153
0.028698832
0.02883599
0.028953545
0.029051411
0.029129449
0.029187683
0.029226417
0.029246242
0.029248038
0.029233
0.029185526
0.028952643
0.028716026
0.028476588
0.028235143
0.027992426
0.02774909
0.027505631
0.027262019
0.027017853
0.026772687
0.026526102
0.02627771
0.026027167
0.025774168
0.025518445
0.025259785
0.024998019
0.024733043
0.02446485
0.024193684
0.02392066
0.023647372
0.0233755
0.0231071
0.022844819
0.022587305
0.022334894
0.022090016
0.021855602
0.021634996
0.021432358
0.021252575
0.021101378
0.020983617
0.020899529
0.020846383
0.020820038
0.020815734
0.02082762
0.020850065
0.020878086
0.020912709
0.020201861
0.020221716
0.020245932
0.020275369
0.02032081
0.020389212
0.020486083
0.020616074
0.020782357
0.020985516
0.021221358
0.021484033
0.021768432
0.022070176
0.022385727
0.022711959
0.023046134
0.023385744
0.023728376
0.024071651
0.024413196
0.024750632
0.025081586
0.025403983
0.025716515
0.026018186
0.026308055
0.026585223
0.026848844
0.027098136
0.027332386
0.027550969
0.027753346
0.027939074
0.028107805
0.028259274
0.028393176
0.028509083
0.028606706
0.028685977
0.028747039
0.028790289
0.028816396
0.028826364
0.028821123
0.028802023
0.028770613
0.028728614
0.028677699
0.028619717
0.028556458
0.028489554
0.028420442
0.028350341
0.02786228
0.027647309
0.027428865
0.027207766
0.026984749
0.026760473
0.026535526
0.026310352
0.026084923
0.02585887
0.025631791
0.025403301
0.025173049
0.024940721
0.024706036
0.024468748
0.024228654
0.023985593
0.023739455
0.023490223
0.023238121
0.022984196
0.022729972
0.022477253
0.022228543
0.021984977
0.021744419
0.02150877
0.021280234
0.021061485
0.020855596
0.020666424
0.020498517
0.020357219
0.020247072
0.020168332
0.020118492
0.020093727
0.020089628
0.02010081
0.020121995
0.02014879
0.020182573
0.019479804
0.019499005
0.019522559
0.019550616
0.019593576
0.019658129
0.019749425
0.019871858
0.020028452
0.020219818
0.020442106
0.020689932
0.020958616
0.02124417
0.021543403
0.021853513
0.022172065
0.022496843
0.022825715
0.023156577
0.023487322
0.023815819
0.024139927
0.02445777
0.02476819
0.025070311
0.025363294
0.02564632
0.0259186
0.026179383
0.026427964
0.026663692
0.026885984
0.027094322
0.027288258
0.027467402
0.027631291
0.02777929
0.027910847
0.028025591
0.028123341
0.028204114
0.028268139
0.02831586
0.028347854
0.0283649
0.028368016
0.02835831
0.028337106
0.028305827
0.028265984
0.028219027
0.028166295
0.028108989
0.028048172
0.026582582
0.02638531
0.026184702
0.025981497
0.02577635
0.025569854
0.025362538
0.025154806
0.024946636
0.024737704
0.02452765
0.024316134
0.024102845
0.023887503
0.023669858
0.023449687
0.023226804
0.023001059
0.022772348
0.022540661
0.022306241
0.022070136
0.021833941
0.021599776
0.021370099
0.021142979
0.020918674
0.020698983
0.020485954
0.020282034
0.020090055
0.019913587
0.019756854
0.019624836
0.019521778
0.019447952
0.019401062
0.019377584
0.019373441
0.019383691
0.019403398
0.019428734
0.019461397
0.018766517
0.018784859
0.018807546
0.018834023
0.018874332
0.018934906
0.019020534
0.01913534
0.019282176
0.019461646
0.019670203
0.019902881
0.020155389
0.020424095
0.02070612
0.020998956
0.021300445
0.021608636
0.021921659
0.022237666
0.022554801
0.022871175
0.023184879
0.023494239
0.023798254
0.024096178
0.024387287
0.024670863
0.024946204
0.025212622
0.025469454
0.025716074
0.025951896
0.026176378
0.026389022
0.026589371
0.026776853
0.026950693
0.027110151
0.02725463
0.027383688
0.027497037
0.027594565
0.027676338
0.02774253
0.02779347
0.027829757
0.027851948
0.027861
0.027857906
0.027843875
0.027820107
0.027787752
0.027747887
0.027701506
0.02764951
0.02535375
0.025172999
0.024989
0.024802396
0.024613774
0.024423665
0.024232553
0.024040815
0.023848442
0.023655157
0.02346065
0.023264627
0.023066817
0.022866978
0.022664888
0.02246035
0.022253198
0.022043298
0.021830567
0.021615046
0.021397064
0.021177808
0.020959261
0.020743792
0.020530604
0.02031884
0.020109847
0.019905241
0.019706861
0.019516929
0.019338046
0.01917351
0.01902724
0.01890387
0.018807364
0.018738009
0.018693712
0.018671236
0.018666831
0.018675982
0.018694078
0.018717834
0.018749195
0.018061699
0.018079069
0.018100821
0.018125619
0.018163254
0.018219901
0.01829998
0.018407339
0.018544642
0.018712452
0.018907473
0.019125111
0.019361422
0.01961309
0.019877515
0.020152454
0.020435997
0.020726433
0.021022127
0.021321468
0.021622834
0.021924566
0.022224979
0.022522599
0.022816582
0.023106312
0.023391189
0.02367061
0.02394397
0.024210671
0.024470122
0.02472175
0.024965007
0.025199365
0.025424328
0.025639408
0.025843981
0.026037191
0.026218185
0.026386201
0.026540603
0.026680882
0.026806657
0.026917688
0.027013823
0.02709506
0.027161554
0.027213528
0.027251382
0.027275887
0.027287918
0.027288394
0.027278228
0.027258311
0.027229497
0.027192587
0.027148322
0.024177443
0.024011433
0.023842216
0.023670374
0.023496438
0.02332089
0.023144194
0.022966701
0.022788424
0.022609128
0.022428554
0.02224645
0.022062584
0.021876744
0.021688737
0.021498387
0.021305555
0.021110142
0.020912138
0.020711711
0.020509415
0.020306817
0.020106156
0.019907355
0.019708847
0.019511728
0.019317282
0.019126943
0.018942363
0.018765568
0.018598946
0.018445545
0.018308993
0.018193595
0.018103051
0.018037672
0.017995564
0.017973777
0.017968913
0.0179769
0.017993387
0.018015588
0.018045568
0.01737584
0.017392199
0.017413067
0.017436272
0.01747147
0.017524549
0.017599574
0.017700123
0.017828655
0.01798566
0.018168026
0.018371467
0.018592336
0.018827593
0.019074884
0.019332194
0.019597832
0.019870297
0.020148164
0.02043003
0.020714482
0.021000072
0.021285321
0.021568945
0.02185025
0.022128749
0.022403962
0.0226754
0.022942567
0.023204964
0.023462085
0.023713438
0.02395853
0.024196891
0.024428049
0.024651533
0.024866713
0.025072697
0.025268568
0.025453483
0.025626675
0.025787474
0.025935301
0.026069691
0.026190222
0.026296668
0.026388801
0.026466516
0.026529827
0.026579313
0.026615479
0.026638987
0.026650516
0.026650749
0.026640364
0.026620025
0.026590361
0.023060207
0.022906677
0.02275004
0.022590823
0.02242951
0.022266565
0.022102405
0.021937362
0.021771481
0.021604561
0.021436371
0.021266701
0.021095342
0.020922112
0.020746838
0.020569381
0.020389651
0.020207652
0.020023544
0.019837758
0.019651294
0.019465932
0.019281505
0.019096803
0.018912282
0.018729045
0.018548281
0.018371293
0.018199592
0.018035042
0.017879851
0.017736843
0.017609393
0.017501509
0.017416646
0.017355128
0.01731523
0.017294253
0.017289135
0.017296231
0.017311396
0.017332238
0.017360872
0.016727107
0.016742514
0.016762554
0.016784326
0.016817337
0.01686718
0.016937608
0.017031955
0.017152495
0.017299645
0.017470441
0.017660855
0.017867483
0.018087512
0.018318786
0.018559481
0.018808084
0.019063268
0.019323782
0.019588402
0.019855892
0.020124983
0.020394385
0.020662977
0.020930203
0.021195689
0.021459062
0.021719945
0.021977939
0.022232651
0.022483656
0.022730557
0.022972924
0.023210366
0.023442449
0.023668771
0.023888705
0.02410138
0.024305874
0.02450134
0.024686911
0.024861829
0.025025378
0.025176917
0.025315869
0.025441731
0.025554052
0.025652508
0.025736877
0.025807321
0.025864141
0.02590785
0.025938895
0.025957746
0.025964897
0.02596085
0.025946099
0.022022213
0.021878876
0.021732578
0.021583821
0.021433043
0.021280737
0.021127269
0.020972953
0.020817809
0.020661688
0.020504373
0.020345682
0.020185423
0.020023444
0.019859613
0.019693864
0.019526239
0.019356972
0.01918653
0.019015643
0.018845576
0.018675415
0.018504206
0.01833222
0.018160399
0.01798976
0.017821385
0.017656475
0.017496427
0.017342974
0.017198172
0.017064661
0.016945599
0.016844743
0.016765335
0.016707688
0.016670201
0.016650372
0.016645382
0.016651915
0.01666608
0.016685737
0.016713129
0.016120684
0.016135254
0.016154506
0.016174962
0.016205933
0.016252718
0.016318803
0.016407312
0.016520363
0.016658324
0.016818387
0.016996755
0.017190232
0.017396187
0.017612621
0.017837857
0.018070525
0.018309433
0.018553472
0.018801563
0.019052619
0.019305528
0.019559147
0.019812507
0.020065156
0.020316819
0.020567224
0.020816079
0.021063085
0.021307927
0.021550281
0.021789813
0.022026192
0.022259075
0.022488118
0.02271295
0.022933027
0.023147517
0.023355516
0.023556149
0.023748575
0.023931986
0.02410562
0.024268774
0.024420765
0.024560893
0.02468856
0.024803115
0.024904118
0.024991447
0.025065315
0.025125946
0.025173597
0.025208553
0.025231139
0.025241697
0.025240574
0.021070853
0.020935699
0.02079785
0.020657766
0.020515875
0.020372568
0.020228209
0.020083101
0.019937262
0.019790537
0.019642751
0.019493725
0.019343317
0.019191423
0.019038024
0.01888321
0.018727271
0.0185708
0.018414544
0.01825877
0.018102134
0.017943616
0.017783534
0.017622732
0.017462089
0.017302529
0.017145051
0.016990767
0.01684098
0.016697312
0.016561688
0.016436592
0.016324992
0.016230425
0.016155945
0.016101856
0.016066663
0.016048019
0.016043277
0.016049367
0.016062684
0.01608125
0.016107509
0.015552116
0.015565953
0.015584486
0.015603761
0.015632882
0.01567686
0.015738945
0.015822065
0.015928197
0.016057671
0.016207829
0.016375092
0.01655645
0.01674943
0.016952164
0.017163096
0.017380963
0.017604686
0.017833266
0.018065741
0.018301147
0.0185385
0.018776786
0.019015162
0.019253265
0.019490904
0.019727893
0.019964021
0.020199077
0.020432819
0.020665011
0.020895381
0.021123681
0.021349618
0.021572926
0.021793265
0.02201017
0.022222856
0.022430452
0.022632071
0.022826919
0.023014175
0.023193078
0.023362875
0.023522787
0.02367206
0.023810019
0.023935869
0.024048959
0.024149065
0.024236107
0.02431004
0.02437096
0.024418982
0.02445427
0.024477017
0.024487437
0.020193475
0.020065593
0.019935237
0.019802838
0.019668818
0.01953349
0.019397208
0.019260261
0.019122702
0.01898438
0.018845161
0.018704916
0.018563595
0.018421226
0.018277995
0.018134252
0.017990451
0.017847449
0.017704445
0.017560357
0.017413579
0.017264642
0.01711427
0.016963244
0.016812369
0.016662499
0.016514561
0.016369594
0.016228819
0.016093758
0.015966225
0.015848561
0.015743568
0.015654584
0.015584497
0.015533597
0.015500485
0.015482949
0.015478484
0.015484218
0.015496809
0.015514395
0.015539619
0.015017584
0.015030783
0.015048675
0.015066895
0.015094358
0.015135797
0.015194242
0.015272441
0.015372243
0.015493939
0.01563501
0.015792077
0.015962302
0.016143356
0.016333482
0.016531227
0.01673542
0.016945066
0.017159257
0.017377124
0.017597802
0.01782041
0.018044048
0.018267972
0.018491897
0.018715698
0.018939254
0.019162428
0.019385076
0.019607037
0.019828135
0.020048181
0.020266978
0.02048431
0.020699951
0.020913635
0.021124926
0.021333103
0.021537352
0.021736847
0.021930774
0.022118323
0.022298697
0.02247112
0.022634771
0.022788842
0.022932576
0.023065228
0.023186056
0.023294673
0.023390852
0.023474446
0.023545356
0.023603509
0.023648912
0.023681624
0.023701725
0.019378199
0.019257353
0.01913417
0.019009069
0.018882433
0.018754614
0.018625938
0.018496682
0.018366909
0.018236541
0.018105512
0.017973822
0.017841581
0.017709042
0.01757655
0.017444697
0.017313309
0.017181348
0.017047863
0.016911841
0.016773307
0.016632748
0.01649086
0.016348375
0.016206043
0.016064661
0.015925097
0.015788326
0.015655494
0.015528038
0.01540767
0.0152966
0.015197481
0.015113472
0.015047304
0.014999259
0.014968016
0.014951485
0.014947288
0.014952721
0.014964682
0.014981394
0.015005673
0.014513796
0.014526442
0.014543766
0.014561051
0.014587037
0.014626192
0.014681345
0.014755079
0.014849118
0.01496372
0.01509649
0.015244231
0.01540426
0.015574379
0.015752936
0.015938561
0.016130163
0.016326819
0.016527694
0.016731993
0.016938934
0.01714772
0.017357543
0.017567742
0.017778091
0.017988513
0.018198936
0.018409279
0.018619451
0.01882935
0.019038861
0.019247856
0.0194562
0.019663741
0.01987031
0.020075701
0.020279536
0.02048116
0.020679822
0.02087475
0.021065162
0.02125027
0.021429279
0.021601407
0.021765814
0.021921661
0.022068129
0.022204365
0.022329587
0.022443352
0.02254539
0.022635444
0.022713299
0.022778776
0.022831759
0.022872176
0.022899983
0.018619549
0.018505275
0.018388852
0.018270667
0.018151079
0.018030429
0.017909045
0.017787214
0.017665056
0.017542595
0.017419907
0.01729718
0.017174627
0.017052676
0.016931339
0.01680983
0.016687462
0.016562943
0.016436179
0.016307077
0.016175682
0.016042429
0.015907966
0.015772977
0.015638164
0.015504272
0.015372117
0.015242614
0.015116847
0.014996171
0.014882205
0.014777043
0.014683196
0.014603661
0.014541026
0.014495557
0.014466008
0.014450395
0.014446454
0.014451632
0.014463042
0.014478974
0.014502393
0.014037906
0.014050075
0.014066902
0.014083361
0.014108035
0.01414514
0.014197322
0.014267012
0.014355819
0.014463967
0.014589172
0.0147284
0.014879112
0.015039228
0.015207187
0.015381699
0.015561739
0.015746446
0.015935046
0.016126806
0.01632101
0.016516934
0.016713843
0.016911148
0.017108667
0.017306362
0.017504197
0.017702133
0.017900121
0.018098103
0.01829601
0.018493765
0.018691282
0.01888846
0.019085184
0.019281301
0.019476495
0.019670179
0.019861671
0.020050259
0.020235213
0.020415781
0.020591195
0.020760685
0.020923415
0.021078535
0.021225202
0.021362517
0.021489654
0.021606104
0.02171149
0.021805495
0.021887841
0.02195829
0.022016638
0.02206272
0.022096409
0.017914576
0.017806387
0.017696241
0.017584512
0.017471553
0.017357719
0.017243372
0.017128858
0.017014392
0.016900165
0.016786276
0.016673102
0.016560502
0.016447848
0.01633458
0.016219829
0.016103126
0.015984377
0.015863521
0.015740513
0.015615404
0.015488603
0.015360717
0.015232386
0.01510427
0.014977067
0.014851546
0.01472857
0.014609161
0.014494603
0.014386427
0.01428662
0.014197565
0.014122104
0.014062695
0.014019588
0.013991599
0.013976842
0.013973157
0.013978126
0.01398906
0.014004302
0.014026941
0.013587451
0.013599214
0.01361561
0.013631345
0.013654856
0.013690122
0.013739624
0.013805651
0.013889708
0.013991985
0.014110298
0.014241762
0.014383969
0.014534943
0.014693208
0.014857544
0.015026986
0.015200725
0.015378039
0.015558249
0.015740694
0.015924709
0.016109624
0.016294906
0.016480409
0.016666123
0.016852042
0.017038157
0.017224453
0.017410906
0.017597483
0.017784146
0.017970847
0.018157529
0.018344116
0.018530503
0.018716425
0.018901361
0.019084695
0.01926578
0.01944394
0.019618476
0.019788657
0.019953744
0.020112923
0.020265355
0.020410194
0.02054653
0.020673511
0.020790586
0.020897319
0.020993335
0.021078291
0.02115187
0.021213806
0.021263874
0.021301896
0.017259221
0.017156692
0.017052445
0.016946871
0.016840348
0.016733268
0.016626089
0.016519151
0.016412668
0.016307121
0.016202
0.016096817
0.015991186
0.015884427
0.015776037
0.015665992
0.015554176
0.0154405
0.015324899
0.015207334
0.015087855
0.014966846
0.014844879
0.014722556
0.014600494
0.014479355
0.01435986
0.014242825
0.014129218
0.014020254
0.013917384
0.013822495
0.01373785
0.013666151
0.01360973
0.013568822
0.013542298
0.013528359
0.013524944
0.013529755
0.013540288
0.013554924
0.013576858
0.013160309
0.013171732
0.013187756
0.01320286
0.013225342
0.013258957
0.013306037
0.013368741
0.013448478
0.013545408
0.013657437
0.013781817
0.013916255
0.014058876
0.014208276
0.014363299
0.014523033
0.014686717
0.014853673
0.015023266
0.015194884
0.015367913
0.015541735
0.015715865
0.015890186
0.016064707
0.016239447
0.016414417
0.016589629
0.016765084
0.016940779
0.017116705
0.017292846
0.017469176
0.017645655
0.017822215
0.017998635
0.018174452
0.018349112
0.018522028
0.01869258
0.018860121
0.019023967
0.01918342
0.019337699
0.019485992
0.019627469
0.01976123
0.019886418
0.020002462
0.020108889
0.020205284
0.020291259
0.020366445
0.020430522
0.020483216
0.020524284
0.016649541
0.016552512
0.01645409
0.016354725
0.016254766
0.016154583
0.016054814
0.015955545
0.015856585
0.015757536
0.015658186
0.015557866
0.015456295
0.015353437
0.015249159
0.015143369
0.015035977
0.014926903
0.014816084
0.014703483
0.014589146
0.014473436
0.014356892
0.014240079
0.014123582
0.014008022
0.013894083
0.013782534
0.013674293
0.013570511
0.013472567
0.013382251
0.013301717
0.013233534
0.013179918
0.013141086
0.013115961
0.013102822
0.013099701
0.013104407
0.013114612
0.013128722
0.013150025
0.01275465
0.012765795
0.012781503
0.012796057
0.012817629
0.01284976
0.012894646
0.012954327
0.013030125
0.013122172
0.013228459
0.013346362
0.013473695
0.013608673
0.01374996
0.013896458
0.0140473
0.014201768
0.014359222
0.014519068
0.014680734
0.014843649
0.01500724
0.015171064
0.015335025
0.015499148
0.015663465
0.015828007
0.015992802
0.016157875
0.016323241
0.016488915
0.016654905
0.016821211
0.016987822
0.017154698
0.017321657
0.017488287
0.01765409
0.017818533
0.017981052
0.018141048
0.018297889
0.018450917
0.018599395
0.018742546
0.018879568
0.019009584
0.019131752
0.019245493
0.019350318