/*--------------------------------*- C++ -*----------------------------------*\
| =========                 |                                                 |
| \\      /  F ield         | OpenFOAM: The Open Source CFD Toolbox           |
|  \\    /   O peration     | Version:  2.4.0                                 |
|   \\  /    A nd           | Web:      www.OpenFOAM.org                      |
|    \\/     M anipulation  |                                                 |
\*---------------------------------------------------------------------------*/
FoamFile
{
    version     2.0;
    format      ascii;
    class       volScalarField;
    location    "360";
    object      nut;
}
// * * * * * * * * * * * * * * * * * * * * * * * * * * * * * * * * * * * * * //

dimensions      [0 2 -1 0 0 0 0];

internalField   nonuniform List<scalar> 
19477
(
0.021361124
0.021345445
0.021327287
0.021306072
0.021280548
0.021248967
0.02120878
0.021156937
0.021089785
0.021003493
0.020895169
0.020761642
0.020599028
0.020402946
0.020168346
0.019889804
0.019561588
0.019178025
0.018734041
0.018225868
0.017651907
0.017013611
0.016316131
0.015567946
0.014779312
0.013962407
0.013130708
0.012298042
0.011478047
0.010685074
0.0099346512
0.009241671
0.0086155246
0.0080586527
0.0075688755
0.0071423029
0.014127786
0.014132285
0.014158485
0.01420937
0.014288339
0.014399258
0.014546551
0.014735189
0.01497056
0.01525702
0.015600477
0.016007595
0.016485612
0.017038075
0.017665376
0.018368058
0.019147002
0.020031543
0.021028341
0.021321949
0.021353439
0.021380239
0.021402332
0.021419381
0.021431128
0.021437909
0.021439951
0.021437432
0.021430545
0.021419853
0.021406576
0.021391423
0.021376821
0.021403117
0.021390954
0.021376624
0.021359408
0.021338404
0.021312118
0.021278358
0.02123448
0.021177322
0.021103596
0.021010878
0.020896461
0.020756975
0.0205886
0.020386889
0.020147018
0.0198638
0.019531962
0.019146539
0.018703415
0.018200003
0.017636002
0.017014044
0.016339533
0.015619534
0.014863143
0.014081173
0.013285413
0.012487908
0.011701043
0.010938358
0.01021482
0.009543988
0.008934216
0.0083878659
0.0079034225
0.0074779881
0.0071097754
0.0067961263
0.0065343684
0.0063218469
0.0061557266
0.0060329859
0.014179169
0.01419862
0.014240279
0.014307111
0.014402477
0.014530171
0.014694486
0.014900191
0.015152329
0.015454768
0.015812725
0.016231723
0.016717572
0.017272167
0.017894883
0.018586068
0.019344858
0.020210986
0.021208386
0.02133847
0.021369418
0.021395965
0.021418118
0.021435591
0.021448181
0.021456253
0.021460043
0.021459725
0.021455463
0.021447771
0.021437778
0.021426151
0.021415216
0.02144036
0.02143139
0.021420483
0.021406881
0.021389971
0.021368481
0.021340531
0.021303834
0.021255666
0.021193209
0.021114458
0.021017121
0.020898302
0.020754704
0.020582453
0.020377314
0.020134666
0.019849713
0.019517771
0.019134666
0.018697265
0.018204097
0.017655928
0.017055731
0.016407862
0.015718581
0.014995988
0.014249532
0.013489402
0.012726185
0.011971294
0.011237514
0.010538898
0.0098878195
0.0092919313
0.0087537931
0.0082729462
0.0078483179
0.0074780403
0.0071601604
0.0068924185
0.0066724204
0.0064976349
0.014235885
0.014270541
0.01432785
0.014410745
0.014522525
0.014666879
0.014847926
0.015070169
0.015338224
0.015655385
0.016026093
0.016454735
0.016945827
0.017499996
0.018116574
0.018797167
0.019541307
0.020386995
0.021319249
0.02135377
0.02138404
0.021410184
0.021432226
0.02144993
0.021463155
0.021472292
0.021477584
0.021479204
0.02147728
0.02147228
0.021465246
0.021456813
0.021449224
0.02147283
0.021466771
0.021458943
0.021448587
0.021435374
0.021418222
0.021395524
0.021365309
0.02132523
0.021272881
0.021206618
0.021124512
0.021024097
0.020902553
0.020756545
0.020582397
0.020376053
0.020133233
0.019849637
0.019521242
0.019144701
0.018717835
0.018240122
0.017712709
0.017137798
0.016519226
0.015862569
0.015174886
0.014464297
0.013739587
0.013010117
0.012286209
0.011579968
0.010904476
0.010271159
0.0096873131
0.0091562088
0.0086788186
0.0082545146
0.0078819884
0.0075596493
0.00728541
0.0070572656
0.014299795
0.014349842
0.014422914
0.014521895
0.014649992
0.014810753
0.015008073
0.015246129
0.015529039
0.015859465
0.016241059
0.016677175
0.01717132
0.017723314
0.018333041
0.019003943
0.019739303
0.020565926
0.021334341
0.021367769
0.021397212
0.021422778
0.021444516
0.021462247
0.021475888
0.021485863
0.021492417
0.021495718
0.021495863
0.021493269
0.021488892
0.021483346
0.021478796
0.021500421
0.021496999
0.021491947
0.021484508
0.021474625
0.021461394
0.021443449
0.021419095
0.021386309
0.021343039
0.021287944
0.021219412
0.02113535
0.021033372
0.020910631
0.020763979
0.020589903
0.020384645
0.020144351
0.019865282
0.019544113
0.019178312
0.018766538
0.018308656
0.017805258
0.017258246
0.016671028
0.016048433
0.015396476
0.01472205
0.014032673
0.013336523
0.012643068
0.011963557
0.011310141
0.010693482
0.010121076
0.0095972366
0.0091234372
0.0086995816
0.0083248307
0.0079977617
0.0077168416
0.014373052
0.014438596
0.014527451
0.014642427
0.014786612
0.014963369
0.015176321
0.015429263
0.01572578
0.016067886
0.016458501
0.016900139
0.017395612
0.017944364
0.018546941
0.019207639
0.019935943
0.020750408
0.021348072
0.021380318
0.021408762
0.021433551
0.021454773
0.02147231
0.021486146
0.021496727
0.021504305
0.021509041
0.021510997
0.021510538
0.021508539
0.021505594
0.021503793
0.021522922
0.021521869
0.02151932
0.021514499
0.021507615
0.02149793
0.021484293
0.02146525
0.021439061
0.021403969
0.021358884
0.021302457
0.021232919
0.021148263
0.021046085
0.020923715
0.020778151
0.020606146
0.020404313
0.020169275
0.019897889
0.01958753
0.019236399
0.018843531
0.018408397
0.017931457
0.017414384
0.016860091
0.016272637
0.015657044
0.015019075
0.014365115
0.013702316
0.013039223
0.012386224
0.011754524
0.011154544
0.010594531
0.010078695
0.0096090898
0.0091860688
0.0088093939
0.0084780893
0.014458115
0.014539158
0.014643698
0.014774442
0.014934323
0.015126483
0.015354231
0.015620951
0.015929678
0.016281821
0.016679677
0.017125132
0.017620563
0.018165419
0.018760733
0.019409831
0.020131735
0.020942749
0.021360305
0.021391187
0.021418426
0.021442219
0.0214627
0.021479817
0.021493616
0.021504571
0.021512936
0.021518865
0.021522383
0.021523803
0.021523916
0.021523305
0.021523981
0.021540011
0.021541069
0.021540764
0.021538288
0.021534103
0.021527628
0.021517905
0.021503693
0.021483494
0.021455801
0.021419721
0.021374118
0.021317496
0.021248173
0.021164133
0.021063138
0.020942652
0.02079991
0.020631988
0.020435911
0.020208814
0.019948154
0.019651945
0.019318741
0.018947309
0.01853711
0.018088526
0.017602941
0.017082741
0.016531239
0.015952539
0.01535136
0.014733028
0.014103759
0.013471274
0.012845023
0.012235709
0.011653867
0.011107234
0.010600611
0.010136437
0.0097156981
0.0093385397
0.014557722
0.014654138
0.014774115
0.014920228
0.015095224
0.015301991
0.015543499
0.015822709
0.016142137
0.016502655
0.016906081
0.017353858
0.017848111
0.018388775
0.01897727
0.019614342
0.020331363
0.021152046
0.0213708
0.021400068
0.021425864
0.021448424
0.021467926
0.021484383
0.021497907
0.021508998
0.021517913
0.021524794
0.021529633
0.021532682
0.021534655
0.021536123
0.021539021
0.021551246
0.021554166
0.021555858
0.021555472
0.021553709
0.021550142
0.021543984
0.021534186
0.021519457
0.021498495
0.02147056
0.02143468
0.021389581
0.021333852
0.021265813
0.021183604
0.021085108
0.020967999
0.020829797
0.020667935
0.020479875
0.020263271
0.020016134
0.019736805
0.019423662
0.019075546
0.018691952
0.018273136
0.017820158
0.017334886
0.016819936
0.016278547
0.015714504
0.015132254
0.014537126
0.013936006
0.013337763
0.012752574
0.012190622
0.011659413
0.011163966
0.010707157
0.010290488
0.014674832
0.014786322
0.014921293
0.015082162
0.015271465
0.015491813
0.015745834
0.01603608
0.016364598
0.016731829
0.017139267
0.017588063
0.018080283
0.018616861
0.019199567
0.01982711
0.020535902
0.021348177
0.021379178
0.021406558
0.021430657
0.02145173
0.021469997
0.021485539
0.021498539
0.02150952
0.021518743
0.021526337
0.021532255
0.021536693
0.021540282
0.021543583
0.021548459
0.021556052
0.021560591
0.021564042
0.021565502
0.021565904
0.021564971
0.02156207
0.021556324
0.021546619
0.021531824
0.021511308
0.021484219
0.021449453
0.021405826
0.021351934
0.021286244
0.021207003
0.021112285
0.021000012
0.020868012
0.020714095
0.02053617
0.020332371
0.020101004
0.019840301
0.019548772
0.019225371
0.018869584
0.018481506
0.018061874
0.017612074
0.017134069
0.016630329
0.016103816
0.015558105
0.01499779
0.014429282
0.013861079
0.013302773
0.012763385
0.012250456
0.011768781
0.011321618
0.014812486
0.014938519
0.015087792
0.015262538
0.015465069
0.015697715
0.015962773
0.016262428
0.016598336
0.016970622
0.017380602
0.017829268
0.018318829
0.018851167
0.019427917
0.020053112
0.020752121
0.021356328
0.021384949
0.021410171
0.021432299
0.021451606
0.021468358
0.021482712
0.021494922
0.021505537
0.021514819
0.021522883
0.021529643
0.021535231
0.021540197
0.021545094
0.021551711
0.021553694
0.021559616
0.021564593
0.021567666
0.021569992
0.02157144
0.021571522
0.021569513
0.021564457
0.021555357
0.021541656
0.021522579
0.021497152
0.021464362
0.021423036
0.021371912
0.021309552
0.021234373
0.021144664
0.021038616
0.020914379
0.020770146
0.020604241
0.02041506
0.020200849
0.019960008
0.019691208
0.019393475
0.01906626
0.018709491
0.018323608
0.017909541
0.017468672
0.017002798
0.016514151
0.016005609
0.015481393
0.014947668
0.014412138
0.013883265
0.013369354
0.012877317
0.012412383
0.014471417
0.014468372
0.014474029
0.014489392
0.014515523
0.01455361
0.014605236
0.014671818
0.014754604
0.014854665
0.014973573
0.015113314
0.015275871
0.015463292
0.015677658
0.015921032
0.016195414
0.016502683
0.01684419
0.017219862
0.017630948
0.018078367
0.018564751
0.019092246
0.019660524
0.020286499
0.020992754
0.02136147
0.021387522
0.021410302
0.021430153
0.021447386
0.02146232
0.021475189
0.021486326
0.021496306
0.021505391
0.021513677
0.02152104
0.021527541
0.02153365
0.021539911
0.021548038
0.021543249
0.02155032
0.021556594
0.021561055
0.021565076
0.021568674
0.021571494
0.021572953
0.021572229
0.021568437
0.021561058
0.021549356
0.021532446
0.021509446
0.021479361
0.021441153
0.021393644
0.021335546
0.021265466
0.021181922
0.02108338
0.02096832
0.020835289
0.020682843
0.020509348
0.020313238
0.020093099
0.019847729
0.019576203
0.019277926
0.018952676
0.018600613
0.01822227
0.017818538
0.017390635
0.016940201
0.01646984
0.01598363
0.015487039
0.014986851
0.014490102
0.014004645
0.013537018
0.014524835
0.01453465
0.014553446
0.014582173
0.014621835
0.014673559
0.014738853
0.014819047
0.014915314
0.015028629
0.015160463
0.015312683
0.015487122
0.01568564
0.015910105
0.016162347
0.016444117
0.016757062
0.017102316
0.017479714
0.017890492
0.018335614
0.018818509
0.019340708
0.019899694
0.020525246
0.02125038
0.021363012
0.021386163
0.021406172
0.021423413
0.021438233
0.021451012
0.021462074
0.021471833
0.021480893
0.021489516
0.021497774
0.021505499
0.02151268
0.0215197
0.021527098
0.021536509
0.021523545
0.021531536
0.021538886
0.021544519
0.021550019
0.021555555
0.021560898
0.021565594
0.021568945
0.02157015
0.021568698
0.021563864
0.021554812
0.02154075
0.021520821
0.021494159
0.0214598
0.021416703
0.021363742
0.021299719
0.021223389
0.021133496
0.021028823
0.020908117
0.020769925
0.020612807
0.020435393
0.020236424
0.020014803
0.019769644
0.019500312
0.019206446
0.018887969
0.01854508
0.018178253
0.017788266
0.017376565
0.016945683
0.016499162
0.016041709
0.015579
0.01511756
0.014664093
0.014614194
0.014636481
0.014667961
0.014709515
0.014762066
0.014826664
0.014904727
0.014997486
0.015106038
0.015231249
0.015374487
0.015537507
0.015721999
0.015929657
0.01616217
0.016421179
0.01670825
0.017024867
0.017372038
0.017749573
0.018158738
0.01860077
0.019079738
0.019595938
0.020153769
0.020780993
0.021336945
0.021360109
0.021379968
0.021396825
0.021411069
0.021423091
0.02143334
0.021442234
0.021450284
0.02145812
0.021466003
0.021473977
0.021481826
0.021489454
0.021497162
0.021505474
0.02151595
0.021493102
0.021501794
0.021510006
0.021516606
0.021523385
0.021530668
0.021538348
0.021546095
0.021553317
0.021559281
0.021563458
0.021565103
0.021563397
0.021557602
0.02154696
0.021530737
0.021508136
0.021478313
0.021440367
0.02139334
0.021336234
0.021268037
0.021187751
0.021094328
0.020986521
0.020863066
0.020722714
0.020564264
0.020386592
0.020188695
0.019969723
0.019729008
0.019466075
0.019180656
0.018872689
0.018542361
0.018190326
0.017818028
0.017427648
0.017022113
0.016605451
0.016182532
0.015758934
0.014744177
0.014778192
0.014821497
0.014874881
0.014939178
0.01501535
0.015104724
0.015208438
0.015327517
0.015462733
0.015615357
0.015787053
0.015979394
0.016193945
0.016432258
0.016695834
0.016986118
0.017304494
0.017651914
0.018028192
0.018434728
0.018873444
0.019348024
0.019857475
0.020423188
0.02107157
0.021332307
0.021351641
0.021367775
0.021381031
0.021391826
0.021400603
0.021407891
0.021414216
0.02142019
0.021426477
0.02143333
0.021440761
0.021448496
0.021456348
0.021464526
0.021473542
0.021484872
0.021450041
0.021459227
0.021468103
0.021475482
0.02148336
0.021492228
0.021502097
0.021512753
0.021523701
0.021534261
0.021543861
0.021551708
0.021556974
0.021558943
0.021556922
0.021550269
0.021538315
0.021520373
0.021495719
0.021463595
0.021423209
0.021373761
0.021314453
0.021244432
0.021162661
0.021068071
0.020959581
0.020836108
0.020696597
0.020540048
0.020365545
0.020172273
0.019959545
0.019726809
0.019473655
0.019199846
0.018905537
0.018591472
0.018258861
0.017909485
0.017545874
0.017171313
0.016789892
0.014918369
0.014962794
0.015016434
0.015079983
0.015154194
0.015239953
0.01533852
0.015450963
0.015578259
0.01572111
0.015880718
0.016058683
0.016256498
0.016475634
0.016717549
0.016983655
0.017275317
0.017593881
0.01794028
0.018314358
0.01871796
0.019153926
0.019624754
0.020134434
0.020715278
0.021302718
0.021321126
0.021336136
0.02134803
0.021357162
0.021363981
0.021368998
0.021372833
0.021376135
0.021379631
0.02138402
0.021389543
0.02139617
0.021403559
0.021411422
0.021419869
0.021429392
0.021441382
0.021391984
0.021401481
0.021410845
0.02141884
0.021427668
0.021437993
0.021449945
0.021463422
0.021478019
0.021493092
0.021508006
0.021521892
0.02153389
0.021543279
0.021549398
0.021551668
0.021549512
0.02154236
0.021529629
0.021510716
0.021485002
0.021451861
0.021410671
0.021360755
0.021301273
0.021231354
0.021150095
0.021056569
0.020949841
0.020828991
0.020693131
0.020541425
0.020373102
0.020187472
0.019983934
0.019762013
0.019521522
0.019262766
0.018986326
0.018693132
0.018384748
0.0180632
0.017731094
0.017390896
0.017047948
0.016706865
0.016372592
0.01604904
0.01573999
0.015448474
0.015176859
0.014926931
0.014700021
0.014497094
0.015137824
0.015190467
0.015252079
0.01532329
0.015404801
0.015497466
0.015602515
0.015720986
0.015853848
0.016001756
0.016165867
0.016347747
0.016548834
0.016770538
0.017014248
0.017281307
0.017573036
0.017890778
0.01823549
0.018607232
0.019008723
0.019443075
0.019914058
0.020441669
0.021049899
0.021288194
0.021301584
0.021311651
0.021318686
0.021323067
0.021325294
0.021325956
0.021325779
0.021325553
0.021326132
0.02132825
0.021332133
0.021337697
0.021344521
0.021352201
0.021360739
0.0213706
0.021383078
0.021315944
0.021325599
0.021335306
0.021343786
0.021353451
0.021365153
0.021379137
0.021395414
0.021413661
0.021433257
0.021453478
0.021473361
0.021491985
0.021508602
0.02152256
0.021533314
0.021540347
0.021543175
0.021541319
0.0215343
0.021521631
0.021502829
0.021477418
0.021444875
0.021404536
0.021355717
0.021297688
0.021229689
0.021150929
0.021060609
0.020957929
0.020842106
0.02071238
0.020568029
0.020408385
0.020232855
0.020041052
0.019832968
0.019608824
0.019369098
0.019114618
0.018846599
0.018566655
0.018276877
0.017980343
0.017680658
0.01738194
0.017088669
0.016803659
0.016530446
0.016271798
0.016030028
0.01580704
0.015604306
0.015422548
0.015398562
0.01545623
0.015522559
0.015598184
0.015683817
0.015780323
0.015888945
0.016010722
0.01614663
0.01629729
0.016463821
0.016647762
0.016850504
0.017073397
0.017317765
0.017584891
0.017876069
0.018192704
0.018536002
0.018906802
0.019308842
0.019745983
0.02023445
0.020796679
0.021252269
0.021263491
0.021271175
0.02127557
0.021277004
0.021275901
0.021272822
0.021268451
0.021263638
0.021259328
0.021256519
0.021255978
0.021257906
0.021262157
0.021268219
0.021275552
0.021284042
0.021294112
0.021306942
0.0212182
0.021227897
0.021237845
0.021246714
0.021257151
0.021270204
0.021286237
0.021305372
0.021327359
0.02135159
0.021377229
0.021403192
0.021428477
0.021452287
0.021473955
0.021492947
0.021508784
0.021521038
0.021529305
0.021533197
0.02153233
0.021526332
0.021514843
0.021497469
0.021473702
0.021443021
0.02140486
0.021358617
0.021303653
0.021239304
0.021164888
0.021079718
0.020983102
0.020874361
0.020752837
0.020617903
0.0204691
0.020306235
0.020129292
0.019938448
0.019734113
0.019516961
0.019287995
0.019048626
0.018800826
0.018547206
0.018290459
0.018034812
0.017782719
0.017537285
0.017301301
0.017077255
0.01686737
0.016673548
0.016497219
0.016339324
0.015691315
0.015750601
0.015818464
0.015895577
0.015982689
0.0160807
0.016190875
0.016314257
0.016451824
0.016604145
0.016772281
0.016957717
0.01716178
0.017385747
0.017630876
0.01789842
0.018189725
0.018506552
0.018851169
0.019226023
0.019635677
0.020088852
0.020617955
0.021210923
0.021220822
0.021225419
0.02122651
0.021224363
0.021219339
0.021211915
0.021202731
0.02119258
0.021182451
0.021173465
0.021166774
0.021163179
0.021162849
0.021165563
0.021170701
0.021177575
0.021185929
0.021196132
0.021209219
0.021094161
0.021103816
0.021113943
0.021123143
0.02113434
0.021148785
0.021166958
0.021189092
0.021215007
0.02124409
0.021275371
0.021307619
0.021339731
0.021370839
0.021400245
0.021427406
0.021451857
0.021473207
0.021491101
0.021505215
0.021515242
0.021520892
0.021521896
0.021517962
0.021508717
0.021493779
0.02147273
0.021445111
0.021410426
0.021368147
0.021317722
0.021258575
0.021190117
0.021111749
0.021022866
0.020922886
0.020811341
0.020687946
0.020552535
0.020405116
0.020245845
0.020075071
0.01989336
0.019701612
0.019501089
0.019293479
0.019080928
0.018866196
0.018652148
0.018440771
0.018234553
0.018035838
0.017846847
0.017669631
0.01750594
0.017357194
0.017224477
0.015967972
0.016027416
0.016095775
0.016173755
0.016262117
0.016361753
0.016473918
0.016599625
0.016739824
0.016894988
0.017066081
0.017254503
0.017461498
0.017688283
0.017936133
0.018206426
0.018500861
0.018822546
0.019176141
0.019565557
0.019999573
0.020501354
0.021059023
0.021171907
0.021172576
0.021169562
0.021163066
0.02115339
0.021140945
0.02112628
0.021110126
0.021093401
0.021077247
0.021062976
0.021051911
0.021044886
0.021042031
0.021043035
0.021047158
0.021053524
0.021061713
0.02107202
0.021085293
0.02094072
0.020950269
0.020960556
0.020970073
0.020982064
0.020997967
0.021018382
0.021043651
0.02107366
0.021107778
0.021144879
0.021183567
0.021222619
0.021261083
0.021298212
0.021333439
0.021366298
0.021396411
0.021423456
0.02144715
0.021467238
0.021483488
0.021495698
0.021503657
0.021507097
0.021505756
0.021499341
0.021487516
0.021469913
0.021446126
0.021415728
0.021378251
0.021333221
0.021280124
0.021218451
0.021147679
0.021067366
0.020977221
0.020877024
0.020766649
0.020646109
0.020515549
0.020375288
0.020225904
0.020068276
0.019903303
0.019732654
0.019558298
0.01938268
0.019207024
0.019033525
0.018864131
0.0187008
0.018545438
0.018399797
0.018265444
0.018143769
0.016189157
0.016250335
0.016321103
0.016402113
0.01649407
0.016597814
0.016714509
0.0168451
0.016990467
0.017150978
0.017327502
0.017521385
0.017733847
0.017966211
0.018220102
0.018497592
0.018801621
0.019138464
0.019515554
0.019938741
0.020427809
0.020962517
0.021116352
0.021112264
0.021104283
0.021092596
0.021077467
0.021059255
0.021038433
0.021015638
0.020991698
0.020967666
0.020944846
0.020924748
0.020908871
0.020898075
0.020892436
0.020891544
0.020894526
0.020900307
0.020908285
0.020918643
0.020932021
0.02075921
0.020768658
0.020779133
0.020789036
0.020801924
0.020819406
0.020842206
0.020870773
0.020905045
0.020944363
0.020987427
0.021032661
0.021078709
0.021124523
0.021169299
0.021212432
0.021253444
0.021291961
0.021327675
0.021360325
0.021389691
0.021415586
0.021437843
0.021456315
0.021470818
0.021481185
0.021487232
0.021488716
0.021485389
0.021476939
0.021463062
0.021443376
0.021417533
0.021385087
0.021345649
0.021298723
0.021243962
0.021181059
0.021109771
0.02102983
0.020941237
0.020843998
0.020738295
0.020624508
0.020503153
0.020375011
0.020241199
0.02010297
0.01996203
0.019819861
0.019677934
0.019537566
0.019400366
0.019267957
0.019141897
0.01902366
0.018914627
0.016408197
0.016473574
0.016549062
0.01663526
0.01673279
0.016842475
0.016965386
0.017102383
0.017254244
0.017421316
0.017604484
0.017805211
0.018024975
0.018265709
0.018530271
0.018822919
0.019149511
0.019518906
0.019941726
0.020422807
0.020937528
0.021053066
0.021043485
0.021029864
0.021012355
0.020991195
0.020966699
0.020939284
0.020909495
0.020878054
0.020845894
0.020814205
0.020784454
0.020758352
0.020737565
0.020722961
0.020714537
0.020711764
0.020713633
0.02071888
0.020726713
0.020737145
0.020750639
0.020551009
0.02056046
0.020571212
0.020581631
0.020595556
0.020614769
0.020640124
0.020672175
0.020710909
0.020755629
0.02080485
0.020856799
0.020909974
0.02096322
0.021015667
0.021066663
0.021115707
0.021162419
0.021206493
0.021247679
0.021285771
0.021320606
0.021352055
0.021380004
0.021404349
0.021424999
0.021441836
0.021454726
0.021463486
0.021467927
0.021467801
0.021462864
0.021452804
0.021437327
0.02141606
0.021388655
0.021354736
0.021314032
0.021266312
0.021211394
0.021149097
0.021079363
0.021002186
0.020917718
0.020826203
0.020728239
0.020624527
0.020516332
0.020404875
0.020291478
0.020177023
0.020062783
0.019949974
0.019839904
0.019733876
0.019633166
0.019539015
0.016670246
0.016740499
0.016821222
0.016912959
0.017016314
0.017131992
0.017261054
0.017404354
0.017562665
0.017736409
0.017926795
0.018135859
0.018366026
0.018620926
0.018906503
0.019230337
0.019598523
0.02001933
0.020491367
0.020985883
0.020978862
0.020963329
0.020943659
0.020919981
0.020892503
0.020861501
0.020827343
0.020790499
0.020751584
0.020711406
0.020670998
0.020631684
0.020595097
0.020563142
0.020537646
0.020519473
0.020508523
0.020504127
0.020505129
0.020510077
0.020517987
0.020528661
0.020542414
0.020315274
0.020324892
0.020336062
0.02034715
0.020362264
0.020383355
0.020411417
0.020447113
0.020490482
0.020540793
0.020596365
0.020655219
0.020715696
0.020776521
0.020836746
0.020895665
0.020952745
0.021007588
0.021059882
0.021109381
0.021155885
0.021199239
0.021239337
0.021276088
0.021309443
0.021339365
0.021365789
0.021388647
0.021407812
0.021423174
0.021434547
0.021441783
0.021444636
0.021442921
0.021436332
0.021424639
0.021407511
0.021384724
0.021356082
0.021321488
0.02128071
0.02123367
0.021180253
0.021120504
0.021054598
0.02098285
0.0209056
0.020823675
0.020738131
0.020649828
0.020559703
0.020468999
0.020378726
0.020289974
0.020203841
0.020121432
0.020043839
0.016964365
0.017039829
0.017125975
0.017223346
0.017332579
0.017454345
0.017589753
0.017739813
0.017905551
0.01808787
0.018288837
0.018512088
0.018762544
0.019046562
0.019371426
0.01974686
0.020166779
0.020615382
0.02090873
0.020891079
0.020869264
0.02084329
0.020813245
0.020779304
0.020741712
0.020700786
0.020656939
0.020610694
0.02056273
0.020513934
0.020465436
0.020418692
0.02037549
0.020337928
0.02030799
0.020286525
0.020273331
0.020267593
0.020267997
0.020272905
0.020281135
0.020292259
0.020306458
0.020051783
0.020061741
0.020073483
0.020085393
0.020101844
0.020124948
0.020155843
0.020195306
0.020243435
0.020299466
0.02036153
0.020427436
0.020495364
0.02056391
0.020632038
0.020698978
0.020764157
0.020827149
0.02088763
0.020945346
0.021000101
0.021051743
0.021100168
0.021145311
0.021187157
0.021225718
0.021260985
0.021292928
0.021321482
0.021346568
0.021368076
0.021385887
0.021399852
0.021409813
0.021415579
0.021416954
0.021413725
0.021405712
0.021392744
0.021374696
0.021351449
0.021322925
0.021289079
0.021249927
0.02120559
0.021156284
0.021102288
0.021043897
0.02098179
0.020916642
0.020849164
0.020780237
0.020710779
0.020641798
0.020574249
0.02050908
0.020447239
0.017283064
0.017364538
0.017456906
0.017560748
0.017676821
0.017805991
0.017949705
0.018109495
0.018286887
0.018484304
0.018706063
0.018958115
0.01924677
0.019579381
0.019951563
0.020358744
0.020778266
0.020811768
0.020787569
0.020759362
0.020727034
0.020690613
0.020650238
0.020606123
0.020558549
0.02050787
0.02045454
0.020399131
0.020342379
0.020285248
0.020228958
0.020175089
0.020125577
0.020082708
0.020048614
0.020024126
0.020008943
0.020002102
0.020002134
0.02000722
0.020015977
0.020027742
0.020042561
0.019760932
0.019771378
0.019783823
0.019796686
0.019814593
0.019839812
0.019873624
0.019916923
0.01996987
0.020031678
0.020100294
0.020173324
0.020248782
0.020325135
0.020401255
0.020476298
0.020549641
0.020620825
0.020689503
0.020755406
0.02081833
0.020878122
0.020934675
0.020987939
0.021037933
0.021084715
0.021128324
0.021168776
0.021206059
0.021240137
0.021270951
0.021298423
0.021322453
0.021342922
0.021359692
0.021372608
0.021381508
0.021386244
0.02138667
0.021382669
0.021374151
0.021361056
0.021343357
0.021321073
0.021294295
0.021263182
0.021227966
0.021188971
0.021146638
0.021101419
0.021053726
0.021004204
0.020953567
0.020902565
0.020851995
0.02080267
0.020755431
0.017628841
0.017717104
0.017816791
0.017928702
0.018053989
0.018193749
0.018350445
0.018527233
0.018726522
0.018952724
0.019211293
0.019509726
0.019842944
0.020203611
0.02057771
0.020724915
0.020697655
0.020666749
0.020632079
0.02059349
0.020550886
0.020504302
0.02045391
0.020399956
0.020342753
0.02028269
0.02022026
0.02015608
0.020090938
0.020025871
0.019962184
0.019901572
0.019846115
0.019798271
0.019760315
0.019733061
0.01971611
0.019708359
0.019708189
0.019713609
0.019723042
0.019735586
0.019751155
0.019443635
0.019454673
0.019467917
0.019481826
0.019501267
0.019528656
0.019565416
0.019612556
0.019670306
0.019737862
0.019813
0.019893128
0.019976106
0.02006027
0.020144396
0.020227565
0.020309098
0.020388495
0.020465376
0.020539454
0.020610506
0.020678367
0.020742926
0.020804135
0.020862042
0.020916742
0.020968313
0.02101681
0.021062266
0.021104691
0.021144071
0.021180371
0.021213537
0.021243492
0.021270139
0.02129336
0.021313026
0.021329006
0.021341165
0.02134939
0.021353597
0.021353729
0.021349762
0.021341708
0.021329636
0.021313668
0.021293988
0.021270865
0.021244634
0.021215643
0.021184287
0.021151028
0.021116389
0.021080885
0.021045126
0.02100976
0.020975438
0.018009919
0.018106701
0.018215946
0.018339244
0.018479024
0.018636664
0.018816012
0.019021668
0.019256216
0.01952615
0.019821466
0.020137653
0.020466703
0.020629353
0.020598536
0.020564589
0.02052721
0.020486259
0.020441611
0.020393136
0.020340741
0.020284484
0.020224569
0.020161274
0.020094941
0.020025994
0.019954962
0.019882504
0.019809461
0.019736933
0.019666306
0.019599385
0.01953838
0.019485915
0.019444398
0.019414624
0.019396101
0.019387594
0.019387343
0.019393196
0.019403394
0.019416801
0.0194332
0.019101195
0.019112891
0.019126989
0.019141995
0.019163003
0.019192565
0.019232245
0.019283166
0.019345627
0.019418818
0.019500353
0.019587459
0.019677846
0.019769727
0.019861783
0.019953019
0.020042697
0.02013027
0.020215322
0.020297536
0.020376668
0.020452534
0.020525007
0.020594038
0.020659696
0.020722104
0.020781371
0.020837584
0.020890813
0.020941102
0.020988479
0.021032949
0.021074496
0.021113087
0.021148664
0.021181146
0.021210436
0.021236415
0.021258958
0.021277957
0.021293323
0.021304994
0.021312936
0.021317148
0.021317671
0.021314591
0.021308045
0.021298243
0.021285442
0.021269916
0.021251993
0.021232041
0.021210467
0.02118771
0.021164235
0.021140533
0.021117081
0.018436608
0.018546176
0.018670393
0.018812059
0.018974979
0.019160884
0.01937495
0.019615397
0.019873775
0.020146808
0.02042852
0.020523831
0.02048932
0.020452026
0.020411632
0.020368055
0.020321146
0.020270761
0.020216763
0.02015902
0.020097444
0.020032117
0.019963273
0.019891224
0.019816341
0.019739083
0.019660012
0.019579828
0.019499419
0.019419949
0.019342876
0.019270106
0.019203974
0.019147255
0.019102479
0.019070423
0.019050507
0.019041372
0.019041125
0.019047471
0.019058476
0.019072779
0.019090043
0.018735189
0.018747573
0.018762545
0.018778661
0.018801227
0.01883292
0.018875438
0.018930016
0.018997027
0.019075658
0.019163379
0.019257247
0.019354836
0.01945424
0.019554055
0.019653207
0.019750898
0.019846534
0.019939658
0.020029919
0.020117044
0.020200826
0.020281116
0.020357856
0.020431131
0.020501084
0.020567847
0.020631535
0.020692243
0.020750048
0.020805007
0.020857159
0.020906524
0.020953102
0.020996871
0.021037788
0.02107578
0.021110744
0.021142564
0.021171136
0.021196371
0.021218202
0.021236584
0.021251496
0.021262955
0.021271008
0.021275749
0.021277326
0.021275932
0.021271779
0.021265132
0.021256285
0.021245563
0.021233316
0.021219911
0.021205733
0.02119117
0.018924007
0.019052581
0.019199395
0.019368496
0.019558049
0.019763569
0.019978997
0.020210741
0.02044341
0.020407332
0.020369092
0.020328288
0.020284726
0.020238331
0.020188954
0.020136465
0.020080723
0.020021585
0.019958909
0.019892561
0.019822456
0.019748701
0.019671564
0.019591386
0.019508569
0.019423604
0.019337088
0.019249757
0.019162545
0.019076672
0.018993665
0.018915523
0.018844692
0.01878409
0.018736359
0.018702253
0.018681111
0.018671459
0.018671282
0.018678148
0.01868997
0.01870517
0.018723295
0.018347373
0.018360448
0.018376285
0.018393495
0.018417575
0.018451316
0.018496544
0.018554604
0.018625941
0.018709748
0.018803365
0.018903695
0.019008189
0.019114834
0.01922214
0.019328963
0.019434447
0.019537948
0.019638967
0.019737116
0.019832089
0.01992365
0.020011625
0.020095942
0.020176693
0.020254036
0.020328122
0.020399084
0.02046704
0.02053209
0.020594315
0.020653782
0.020710539
0.020764616
0.020816023
0.020864744
0.02091073
0.020953891
0.020994118
0.021031311
0.021065382
0.02109626
0.021123889