/*--------------------------------*- C++ -*----------------------------------*\
| =========                 |                                                 |
| \\      /  F ield         | OpenFOAM: The Open Source CFD Toolbox           |
|  \\    /   O peration     | Version:  2.4.0                                 |
|   \\  /    A nd           | Web:      www.OpenFOAM.org                      |
|    \\/     M anipulation  |                                                 |
\*---------------------------------------------------------------------------*/
FoamFile
{
    version     2.0;
    format      ascii;
    class       volScalarField;
    location    "320";
    object      k;
}
// * * * * * * * * * * * * * * * * * * * * * * * * * * * * * * * * * * * * * //

dimensions      [0 2 -2 0 0 0 0];

internalField   nonuniform List<scalar> 
19477
(
0.035893121
0.035840505
0.035788121
0.035751616
0.035741021
0.035766164
0.035833091
0.035945312
0.036102351
0.036298657
0.036521151
0.036754622
0.036985696
0.037202938
0.037396692
0.037558532
0.037681153
0.037758206
0.03778424
0.037754793
0.037666539
0.037517449
0.037306945
0.037035942
0.036706559
0.036321911
0.035886034
0.035403938
0.034881695
0.034326767
0.033748648
0.033159502
0.032573632
0.032005862
0.031470035
0.030978318
0.04562237
0.045489645
0.045331472
0.04514625
0.044932378
0.044688317
0.044412674
0.04410429
0.043762373
0.043386702
0.042978033
0.042539442
0.042075636
0.041591977
0.041094154
0.040587931
0.040078905
0.039572973
0.039069613
0.038575483
0.038100182
0.037654917
0.037251924
0.036904569
0.036623626
0.036409184
0.036254401
0.036148857
0.03608083
0.036036657
0.036006366
0.035977121
0.03594434
0.035172539
0.035132525
0.035094014
0.035070897
0.035073764
0.035112476
0.035193527
0.035320844
0.035494518
0.035709587
0.03595347
0.036211362
0.036470252
0.03671902
0.036948309
0.037149956
0.037316878
0.037442889
0.03752261
0.037551532
0.037526136
0.037444033
0.037304096
0.03710655
0.036852789
0.036545099
0.03618653
0.035780918
0.035332916
0.034848133
0.034333489
0.033797831
0.033252292
0.032709673
0.032183107
0.031684941
0.03122634
0.03081768
0.030466899
0.030179511
0.029958219
0.029802768
0.029710022
0.044953677
0.044784597
0.044591601
0.044373284
0.044128275
0.043855294
0.043553233
0.043221237
0.042858825
0.042466074
0.042043997
0.041595847
0.041126361
0.04064075
0.040144373
0.039642399
0.039139854
0.038642557
0.038148174
0.0376653
0.03720289
0.036771532
0.036382896
0.036049837
0.035782731
0.035581574
0.035439619
0.035346701
0.035291364
0.035260191
0.035243138
0.035227553
0.035208916
0.034422952
0.034395451
0.034369831
0.034359117
0.034374422
0.034425587
0.034519469
0.034660364
0.034848892
0.035080655
0.035343594
0.035623342
0.035907274
0.036184603
0.036446281
0.036684415
0.03689215
0.037063472
0.037193095
0.0372765
0.037310023
0.037290984
0.0372178
0.037090115
0.036908725
0.036675244
0.036391934
0.036061703
0.035688115
0.035275441
0.034828822
0.034354623
0.033860958
0.033357862
0.032856699
0.032369119
0.031906408
0.031479323
0.031097149
0.030767491
0.030495761
0.030285024
0.030135908
0.044186478
0.043984838
0.043761029
0.043513834
0.0432421
0.042944785
0.04262104
0.042270276
0.041892272
0.041487338
0.04105666
0.040603559
0.040132689
0.039649022
0.039157549
0.038662858
0.038169307
0.037682359
0.03719985
0.036730377
0.036282514
0.035866303
0.035492883
0.035174601
0.034921441
0.034733333
0.034603676
0.034522608
0.034478986
0.034459708
0.034454729
0.034451664
0.034446141
0.03364672
0.033631017
0.033617383
0.033618094
0.033644756
0.033707177
0.033812504
0.033965363
0.034166853
0.034413128
0.034692662
0.034991563
0.035297617
0.03560039
0.035891155
0.036162298
0.0364072
0.036620032
0.03679562
0.036929464
0.037017805
0.03705773
0.037047278
0.036985607
0.036873009
0.036710545
0.036499836
0.036243044
0.035942876
0.035602593
0.035226072
0.034817965
0.034384061
0.033931689
0.0334698
0.033008464
0.032558246
0.032129706
0.031732579
0.031375425
0.031065341
0.030807542
0.03060542
0.043321989
0.04309215
0.042842055
0.042570667
0.04227703
0.041960318
0.041619906
0.041255427
0.040866864
0.040454687
0.040020176
0.039566621
0.0390985
0.038620484
0.038137179
0.03765271
0.037170928
0.03669643
0.036228017
0.03577378
0.035341918
0.034941944
0.03458448
0.03428136
0.034042178
0.033866828
0.033748895
0.033678862
0.033645951
0.033637434
0.033643328
0.033651589
0.033658025
0.032846305
0.032841433
0.032838818
0.032849937
0.032886826
0.03295924
0.033074554
0.033237678
0.03345015
0.033708651
0.034002207
0.034317432
0.034642552
0.034967508
0.035283908
0.035584425
0.035862687
0.036113063
0.036330511
0.036510581
0.036649458
0.036744054
0.0367921
0.036792343
0.036744657
0.036649637
0.036508372
0.036322416
0.036093783
0.035824945
0.035518844
0.035178953
0.034809448
0.034415526
0.034003729
0.033581989
0.033159383
0.032745633
0.032350223
0.031981946
0.031648623
0.031356817
0.03111166
0.042363143
0.042109962
0.041838553
0.04154804
0.041237644
0.040906724
0.040554841
0.0401818
0.039787729
0.039373192
0.038939482
0.038489781
0.038028326
0.037559458
0.037087382
0.036615986
0.036149196
0.03568881
0.035236283
0.034798852
0.034384243
0.034001437
0.033660534
0.033372853
0.033147599
0.032984653
0.032877827
0.032817983
0.032794755
0.032795841
0.032811382
0.032829734
0.032846917
0.032024349
0.032029237
0.032036598
0.032057058
0.032102995
0.032184087
0.032307868
0.032479494
0.032700895
0.032969256
0.033274169
0.033602786
0.033943801
0.034287549
0.034625989
0.034952095
0.035259753
0.035543543
0.035798577
0.036020479
0.03620542
0.036350186
0.036452265
0.036510069
0.036523117
0.036491616
0.036416206
0.036297934
0.036138246
0.035938973
0.035702337
0.035430952
0.035127899
0.034796889
0.03444254
0.034070642
0.033688321
0.033303878
0.032925899
0.03256284
0.032222581
0.031912295
0.03163807
0.041314817
0.041043548
0.040756131
0.040451831
0.040130022
0.039790212
0.039432105
0.03905563
0.038661002
0.038248814
0.037820313
0.03737851
0.036927372
0.036470913
0.036012911
0.035557076
0.035107809
0.034663408
0.034228393
0.033809151
0.033412864
0.033047988
0.032724105
0.032452022
0.032240558
0.032089601
0.031993223
0.031942698
0.031928107
0.031937625
0.031961569
0.031988752
0.032015444
0.031183701
0.031197226
0.031213465
0.031242153
0.031295916
0.031384327
0.031515017
0.031693336
0.031921564
0.032197361
0.032510901
0.032849899
0.033203543
0.033562587
0.033919354
0.034267133
0.03460008
0.034913
0.035201176
0.035460336
0.035686672
0.035876896
0.03602831
0.036139054
0.036208362
0.036236113
0.036222569
0.036168348
0.03607442
0.03594209
0.035772992
0.035569085
0.035332665
0.035066437
0.034773668
0.034458432
0.034125911
0.033782575
0.03343572
0.033092916
0.032761649
0.032449015
0.032161493
0.04018401
0.039900167
0.039602243
0.039289621
0.038961797
0.038618393
0.038259216
0.037884268
0.037493799
0.037088382
0.036669172
0.036238971
0.035801466
0.035360362
0.034919019
0.034480826
0.034050311
0.033624256
0.033208331
0.032808465
0.032431361
0.032084984
0.031778421
0.031521968
0.031324064
0.031184619
0.031097993
0.031055896
0.031048891
0.031065667
0.031096769
0.031131513
0.031166461
0.030327398
0.030348411
0.030372397
0.030408165
0.030468502
0.030562847
0.030698861
0.030882044
0.031114973
0.031395758
0.031715159
0.032061482
0.032424432
0.032795201
0.033166492
0.033531921
0.03388593
0.03422356
0.034540283
0.034831958
0.035094834
0.035325591
0.035521403
0.035680204
0.035800997
0.035883393
0.035927339
0.03593309
0.035901212
0.035832567
0.035728304
0.03558985
0.035418903
0.035217457
0.034987866
0.034732996
0.034456483
0.03416299
0.033858208
0.03354846
0.033240381
0.032940564
0.032655341
0.038979935
0.038689119
0.038386206
0.038070678
0.037742116
0.037400227
0.037044876
0.036676098
0.036294137
0.035899507
0.035493242
0.035077918
0.034656943
0.034233726
0.033811328
0.033392869
0.032981993
0.032576008
0.032180383
0.031800767
0.031443445
0.031115926
0.030826809
0.030585888
0.030401219
0.03027275
0.030195151
0.030160585
0.030160119
0.030182988
0.030220014
0.030261055
0.030303009
0.029458618
0.029485963
0.029516549
0.029558234
0.02962388
0.029722766
0.029862519
0.030048737
0.030284249
0.030567581
0.03089008
0.031240666
0.03160958
0.031988468
0.032370428
0.032749418
0.033120172
0.033477987
0.03381854
0.034137843
0.034432233
0.034698404
0.034933455
0.035135169
0.035302376
0.035434477
0.035531158
0.035592374
0.035618346
0.03560956
0.035566757
0.035490921
0.03538327
0.035245256
0.035078588
0.034885307
0.034667943
0.034429752
0.034174837
0.033908082
0.033634974
0.033361243
0.033092648
0.03771397
0.037421663
0.037119099
0.036805827
0.036481496
0.036145857
0.035798802
0.035440366
0.035070753
0.034690402
0.034300211
0.033902531
0.033500499
0.033097213
0.032695713
0.032299511
0.031908579
0.031523486
0.031148887
0.030790056
0.030452852
0.030144333
0.029872619
0.029647001
0.029475154
0.029357075
0.029287756
0.029259825
0.029264868
0.029292693
0.029334437
0.029380534
0.029428258
0.028580618
0.028613151
0.028649195
0.028695637
0.028765335
0.028867382
0.029009311
0.029196769
0.029432786
0.029716267
0.030039146
0.030390968
0.030762529
0.031145944
0.031534716
0.031923153
0.032306297
0.032679708
0.033039288
0.033381223
0.033701969
0.03399827
0.034267199
0.034506447
0.034714723
0.034891268
0.035035566
0.035147322
0.035226476
0.035273195
0.035287872
0.035271116
0.035223746
0.03514678
0.035041439
0.034909179
0.03475176
0.034571399
0.034370938
0.034153903
0.0339245
0.033687432
0.033447642
0.038865246
0.038659079
0.038441524
0.038213645
0.037976473
0.037731003
0.037478184
0.037218796
0.036952889
0.036679963
0.036399437
0.036110773
0.035813488
0.03550718
0.035191533
0.034866323
0.03453144
0.034186896
0.033832842
0.033469627
0.033098022
0.032720168
0.032338949
0.031957153
0.031577788
0.031204799
0.03083475
0.030471129
0.030118007
0.029780229
0.02946324
0.02917366
0.02891914
0.028708473
0.028548954
0.028440636
0.028378838
0.028356661
0.028366217
0.028397901
0.0284432
0.028493153
0.028545447
0.027696666
0.027733271
0.027773654
0.027823716
0.027896238
0.028000102
0.028142695
0.02832966
0.028564178
0.028845495
0.029166122
0.029516244
0.029887214
0.030271628
0.030663403
0.031057207
0.031448398
0.03183281
0.032206582
0.032566095
0.032907951
0.033228979
0.033526271
0.033797477
0.034041233
0.034256672
0.034443127
0.034600111
0.034727333
0.034824699
0.034892308
0.034930455
0.034939619
0.034920455
0.034873793
0.034800647
0.034702217
0.034579973
0.034435827
0.034272233
0.034092217
0.033899351
0.033697617
0.03750421
0.037294046
0.037073573
0.036843915
0.036606142
0.036361274
0.036110267
0.035853904
0.035592253
0.035324852
0.035051164
0.034770688
0.034482982
0.034187673
0.033884462
0.03357313
0.033253553
0.032925705
0.032589679
0.032245741
0.031894546
0.031538054
0.031178907
0.030819738
0.030463538
0.030112946
0.029764876
0.029423186
0.029091732
0.028775013
0.028478102
0.028207205
0.027969516
0.027773334
0.02762558
0.027526359
0.027471326
0.027454048
0.027467166
0.027501669
0.027549423
0.027602087
0.027657799
0.026809947
0.026849558
0.026893202
0.026945793
0.027019962
0.027124363
0.027266183
0.027451015
0.027682142
0.02795911
0.028274993
0.028620611
0.028987886
0.029369898
0.02976098
0.030156168
0.030551139
0.030942011
0.031325174
0.031697218
0.032054913
0.032395206
0.032715249
0.033012696
0.033286156
0.033534698
0.033757555
0.033954101
0.03412387
0.034266557
0.034382024
0.034470301
0.034531581
0.034566216
0.034574709
0.034557718
0.03451601
0.034450494
0.034362393
0.034253355
0.034125489
0.033981356
0.033823967
0.036075787
0.035867197
0.035649323
0.035423308
0.035190225
0.034951084
0.034706823
0.0344582
0.03420529
0.033947658
0.033684799
0.033416247
0.033141583
0.032860452
0.032572564
0.032277694
0.031975697
0.031666512
0.031350178
0.031026889
0.030697215
0.030362953
0.030026527
0.029690677
0.029358854
0.029029687
0.028703574
0.028383752
0.028073799
0.027777868
0.027500678
0.027248026
0.027026662
0.026844401
0.026707787
0.026616981
0.026567967
0.026554773
0.026570559
0.026606912
0.026656095
0.026710403
0.026768448
0.025923481
0.025965095
0.026010985
0.026065077
0.026139792
0.026243537
0.026383255
0.026564443
0.026790436
0.027061037
0.027369866
0.027708373
0.02806904
0.028445435
0.028832307
0.029225059
0.029619693
0.030012615
0.030400472
0.03078008
0.031148395
0.031502509
0.031839669
0.032157574
0.032454846
0.032730532
0.032983809
0.033213963
0.033420403
0.03360267
0.033760437
0.033893524
0.034001888
0.034085627
0.034144971
0.034180279
0.034191971
0.034180513
0.034146604
0.034091279
0.03401593
0.033922324
0.033812611
0.034604508
0.034402293
0.034191736
0.033973954
0.033749988
0.033520807
0.033287303
0.033050192
0.032809542
0.032564942
0.032315917
0.032062026
0.031802871
0.031538112
0.031267462
0.030990692
0.030707641
0.030418217
0.03012242
0.029820395
0.029512659
0.029200881
0.028887401
0.028575077
0.028266874
0.027959136
0.027654671
0.027356375
0.027067501
0.026791866
0.026533848
0.026298849
0.026093184
0.025924192
0.025798048
0.025714963
0.025671244
0.025661368
0.025678999
0.025716316
0.025765992
0.025820963
0.025880339
0.025040021
0.02508272
0.025129921
0.025184572
0.025258827
0.025360836
0.025497257
0.025673448
0.025892751
0.026155183
0.026454881
0.026783913
0.027135314
0.027503129
0.027882521
0.028269256
0.028659659
0.02905043
0.029438475
0.029820846
0.030194701
0.030557299
0.030906011
0.031238618
0.031553786
0.031850577
0.032128154
0.032385759
0.032622726
0.03283849
0.033032591
0.033204686
0.03335455
0.033482073
0.033587261
0.03367023
0.033731106
0.03376999
0.033787157
0.033783164
0.033758859
0.033715385
0.033654207
0.03311604
0.032923967
0.032724367
0.0325183
0.032306746
0.032090611
0.03187072
0.031647735
0.031421713
0.031192268
0.030958957
0.030721363
0.030479113
0.030231883
0.029979395
0.029721422
0.029457796
0.029188409
0.028913239
0.028632416
0.028346438
0.028056926
0.027766473
0.027478205
0.02719105
0.026904601
0.026621368
0.026344055
0.026075635
0.025819622
0.025580068
0.025361996
0.025171301
0.025014858
0.024898477
0.024822419
0.0247833
0.024776029
0.024794758
0.024832244
0.024881578
0.024936335
0.024996137
0.024161956
0.024204922
0.024252602
0.024306974
0.024379884
0.024479213
0.024611305
0.024781338
0.02499262
0.025245335
0.025534108
0.025851602
0.026191389
0.02654798
0.02691694
0.027294391
0.027676979
0.028061691
0.028445697
0.028826289
0.029200839
0.02956679
0.029921661
0.030263344
0.030590578
0.030902469
0.031198199
0.031477007
0.031738195
0.031981141
0.032205299
0.032410215
0.03259553
0.032760977
0.032906386
0.033031672
0.033136723
0.033221336
0.033285447
0.033329224
0.033353063
0.033357617
0.033343811
0.033312882
0.033266106
0.033205141
0.033131862
0.033048295
0.032956423
0.032858365
0.032756156
0.032651656
0.032546515
0.032442155
0.031635356
0.031455885
0.031269566
0.031077371
0.030880195
0.030678868
0.030474145
0.030266628
0.030056368
0.02984301
0.029626145
0.029405393
0.029180408
0.028950889
0.028716578
0.028477257
0.028232763
0.027982989
0.027727922
0.027467717
0.027202906
0.026935253
0.026667725
0.026401925
0.026135002
0.025869064
0.025606335
0.025349236
0.025100463
0.02486324
0.024641307
0.024439324
0.024262783
0.024118109
0.024010759
0.023941035
0.02390585
0.023900529
0.023919687
0.023956646
0.024004912
0.024058695
0.024118128
0.023291219
0.023333759
0.023381205
0.023434584
0.023505402
0.023601271
0.023728193
0.023891134
0.024093326
0.024335078
0.024611464
0.024915715
0.025241914
0.025585021
0.025940988
0.026306282
0.026677859
0.027052987
0.0274291
0.02780373
0.02817447
0.028538957
0.028894881
0.029240265
0.029573942
0.029895086
0.030202927
0.030496731
0.030775809
0.031039522
0.031287283
0.031518576
0.031732953
0.03193004
0.032109536
0.032271204
0.032414747
0.032539721
0.032645771
0.032732741
0.032800675
0.032849828
0.032880674
0.032893906
0.032890385
0.032871183
0.032837622
0.032791133
0.032733304
0.032665824
0.032590449
0.032508852
0.032422582
0.03233304
0.032241456
0.030184628
0.03001874
0.029846536
0.029668901
0.029486647
0.029300521
0.029111209
0.028919259
0.028724725
0.028527288
0.028326581
0.028122264
0.027914029
0.027701604
0.027484756
0.027263287
0.027037051
0.026805968
0.026570079
0.026329626
0.02608531
0.025839207
0.025594089
0.025347896
0.025100739
0.024854592
0.024611524
0.024373726
0.024143651
0.023924257
0.023718987
0.023532161
0.023368883
0.023235149
0.023136069
0.023071987
0.023040098
0.023036122
0.02305512
0.023090955
0.023137551
0.023189734
0.023248127
0.022429214
0.022470772
0.022517424
0.022569229
0.022637372
0.022729194
0.022850331
0.023005513
0.023197858
0.023427752
0.02369068
0.0239804
0.024291479
0.024619301
0.024960181
0.02531092
0.025668768
0.026031267
0.026396105
0.026761053
0.027123927
0.027482567
0.027834844
0.028178932
0.028513774
0.028838625
0.029152785
0.029455576
0.029746345
0.030024471
0.030289369
0.030540497
0.030777367
0.030999542
0.031206636
0.031398309
0.031574122
0.031733448
0.03187571
0.032000486
0.03210753
0.032196764
0.032268295
0.032322422
0.032359575
0.032380352
0.032385618
0.032376247
0.032353448
0.03231846
0.032272733
0.032217684
0.03215467
0.032084965
0.032009737
0.031930041
0.028780467
0.028627689
0.028469073
0.028305394
0.028137373
0.027965683
0.027790948
0.027613674
0.027433913
0.027251397
0.027065807
0.026876842
0.026684238
0.026487755
0.02628719
0.026082374
0.025873199
0.02565966
0.025441923
0.025220446
0.024996389
0.024771984
0.024546331
0.024318508
0.024090042
0.023862677
0.023638236
0.023418677
0.023206226
0.023003585
0.022813926
0.022641241
0.02249027
0.022366595
0.022274995
0.02221585
0.022186628
0.022183429
0.022201754
0.022235991
0.022280455
0.022330578
0.022387409
0.021576777
0.021616939
0.021662411
0.021712207
0.021777288
0.021864714
0.021979735
0.02212682
0.02230894
0.022526515
0.022775382
0.023049786
0.023344737
0.023656014
0.023980274
0.024314626
0.024656604
0.025004007
0.02535477
0.025706896
0.026058419
0.026407385
0.026751857
0.027090169
0.027421382
0.027744848
0.02805995
0.028366081
0.028662652
0.028949087
0.029224829
0.029489354
0.029742167
0.029982808
0.030210852
0.030425896
0.030627407
0.030814634
0.030986834
0.031143384
0.031283801
0.031407747
0.03151503
0.031605613
0.031679566
0.031737122
0.031778684
0.031804746
0.031815967
0.031813336
0.031797958
0.031770962
0.031733468
0.031686557
0.031631257
0.031568528
0.03149925
0.027431208
0.027290241
0.027143816
0.026992642
0.026837372
0.026678606
0.026516953
0.026352874
0.026186434
0.026017398
0.025845508
0.025670501
0.025492152
0.025310256
0.025124642
0.024935198
0.024741904
0.024544909
0.024344626
0.024141969
0.023938319
0.023733097
0.023524678
0.023314374
0.023103634
0.022893985
0.022687037
0.022484548
0.02228854
0.022101483
0.021926293
0.021766657
0.021626967
0.021512403
0.021427432
0.021372473
0.021345263
0.021342283
0.021359521
0.021391859
0.021433939
0.021481759
0.021536663
0.02074766
0.020786145
0.020830226
0.020877828
0.020939795
0.02102287
0.021131917
0.021271137
0.021443324
0.02164888
0.021883918
0.0221431
0.022421828
0.022716241
0.023023305
0.023340414
0.02366536
0.023996183
0.024331046
0.02466817
0.025005798
0.025342175
0.025675551
0.026004428
0.026327991
0.026645691
0.026957006
0.027261414
0.027558398
0.02784745
0.028128067
0.028399763
0.028662071
0.028914543
0.029156748
0.02938826
0.029608506
0.029816649
0.030011835
0.030193305
0.030360404
0.030512587
0.03064943
0.030770635
0.030875967
0.030965389
0.031038895
0.031096613
0.031138798
0.031166225
0.031179616
0.031179839
0.031167768
0.03114427
0.031110198
0.031066368
0.031013556
0.026150382
0.026019193
0.025882977
0.025742364
0.025597952
0.025450319
0.025299995
0.02514741
0.024992681
0.0248356
0.024675922
0.024513449
0.024347967
0.024179327
0.02400742
0.02383225
0.023653983
0.023473036
0.023290255
0.023106737
0.022921269
0.022732127
0.022539973
0.022346122
0.022151894
0.021958655
0.021767854
0.021581089
0.021400205
0.021227476
0.021065589
0.020917961
0.020788666
0.020682522
0.020603699
0.020552642
0.020527311
0.020524527
0.020540759
0.020571322
0.020611133
0.02065665
0.020709444
0.019964522
0.020001236
0.020043798
0.020089183
0.020148084
0.020226913
0.02033019
0.020461861
0.020624549
0.020818627
0.021040441
0.021285004
0.021548057
0.021826039
0.022116183
0.022416125
0.02272388
0.023037698
0.023355944
0.023677032
0.023999395
0.024321459
0.024641654
0.024958634
0.025271707
0.025580422
0.025884348
0.02618305
0.026476092
0.02676304
0.027043457
0.027316914
0.027582991
0.027841274
0.028091356
0.028332822
0.028565086
0.02878728
0.028998488
0.029197876
0.029384667
0.029558179
0.029717814
0.029863085
0.029993544
0.030108845
0.030208713
0.030293025
0.030361764
0.03041528
0.030454069
0.030478833
0.030490203
0.030488822
0.030475351
0.030450443
0.030414736
0.02496404
0.024840596
0.024712552
0.024580512
0.024445004
0.024306671
0.024165957
0.024023267
0.023878657
0.023732015
0.023583097
0.02343175
0.023277799
0.023121182
0.022961929
0.022800273
0.022636672
0.022471825
0.022306743
0.022139733
0.021968809
0.021794011
0.021616467
0.021437366
0.021257898
0.021079297
0.020902889
0.020730138
0.020562746
0.020402821
0.020252861
0.020116049
0.01999619
0.019897789
0.019824752
0.019777517
0.019754211
0.019751916
0.019767437
0.019796463
0.019834231
0.019877508
0.019928169
0.019233868
0.019268851
0.019309831
0.019353012
0.019408869
0.019483488
0.019581083
0.019705376
0.019858839
0.020041829
0.020250925
0.020481463
0.020729469
0.020991639
0.021265421
0.021548652
0.021839532
0.022136484
0.022438042
0.022742792
0.023049329
0.023356244
0.023662119
0.023965754
0.024266559
0.024564173
0.02485825
0.025148436
0.025434376
0.025715708
0.025992065
0.026263082
0.026528398
0.026787649
0.02704047
0.027286477
0.027525104
0.027755492
0.027976705
0.028187857
0.028388125
0.028576737
0.028752991
0.028916264
0.029065968
0.029201526
0.029322489
0.029428442
0.029519094
0.029594477
0.029654974
0.029700981
0.029732918
0.029751231
0.029756396
0.0297489
0.029729223
0.023880259
0.023762839
0.023641362
0.023516376
0.023388401
0.023257919
0.0231254
0.022991241
0.022855483
0.022717994
0.022578624
0.022437234
0.022293796
0.022148381
0.022001277
0.02185303
0.021704302
0.021555382
0.021404547
0.02124997
0.021091174
0.020928842
0.020763998
0.020597707
0.020431049
0.020265155
0.020101243
0.019940669
0.019785014
0.019636243
0.019496691
0.019369343
0.019257765
0.019166191
0.019098291
0.019054491
0.019033057
0.019031271
0.019046159
0.019073732
0.019109573
0.019150665
0.019199246
0.01855034
0.018583671
0.018623091
0.018664152
0.018717103
0.0187877
0.018879882
0.018997156
0.019141851
0.019314314
0.019511337
0.019728557
0.019962259
0.020209363
0.020467502
0.02073468
0.021009251
0.021289785
0.021574957
0.021863493
0.022154135
0.022445613
0.022736647
0.023026165
0.023313668
0.023598873
0.023881508
0.024161293
0.024437947
0.024711175
0.02498068
0.025246157
0.025507305
0.025763814
0.026015371
0.026261629
0.026502065
0.02673585
0.026962073
0.02717984
0.027388298
0.027586636
0.027774091
0.027949924
0.028113416
0.028263891
0.028400766
0.028523365
0.028631166
0.028724094
0.028802272
0.0288658
0.028914913
0.028949873
0.028970979
0.028978559
0.028972948
0.02288402
0.022772119
0.022656625
0.022538049
0.022416906
0.022293563
0.022168469
0.022042003
0.021914282
0.021785183
0.021654659
0.0215227
0.021389484
0.021255314
0.021120657
0.020986216
0.020851266
0.020714424
0.020573832
0.020429319
0.02028096
0.020129368
0.019975462
0.019820212
0.019664609
0.019509692
0.019356592
0.019206569
0.019061101
0.018922028
0.018791543
0.01867245
0.018568108
0.018482506
0.018419102
0.018378309
0.018358511
0.01835716
0.018371452
0.018397674
0.018431726
0.018470749
0.018517338
0.017909214
0.017940993
0.017978921
0.018017983
0.018068212
0.018135047
0.018222168
0.018332877
0.018469368
0.018631967
0.018817664
0.019022366
0.019242596
0.019475475
0.019718799
0.019970719
0.020229717
0.020494485
0.020763819
0.021036565
0.021311586
0.021587734
0.021863855
0.022138986
0.022412706
0.022684798
0.022955054
0.02322326
0.023489196
0.023752634
0.024013336
0.024271059
0.024525555
0.02477657
0.025023836
0.025267056
0.025505745
0.025739122
0.025966321
0.026186471
0.026398715
0.026602213
0.026796152
0.02697975
0.027152204
0.027312732
0.027460611
0.027595078
0.027715486
0.027821576
0.02791326
0.027990526
0.02805342
0.02810202
0.028136462
0.028156918
0.028163585
0.021961423
0.021855243
0.021745812
0.021633624
0.021519141
0.021402783
0.021284969
0.021166071
0.021046245
0.02092551
0.02080395
0.02068177
0.02055932
0.020437028
0.020314937
0.020191843
0.020066642
0.01993798
0.019805743
0.019669887
0.019530495
0.019388127
0.019243628
0.019097892
0.018951831
0.018806413
0.018662689
0.018521836
0.018385242
0.018254635
0.018132079
0.018020218
0.017922224
0.017841861
0.017782398
0.017744229
0.017725841
0.017724834
0.017738555
0.017763519
0.017795919
0.017833015
0.017877724
0.01730633
0.017336671
0.017373198
0.0174104
0.017458112
0.017521467
0.017603908
0.017708544
0.017837432
0.017990878
0.018166043
0.018359078
0.018566721
0.018786275
0.019015683
0.019253221
0.019497488
0.019747277
0.020001489
0.02025907
0.020518987
0.020780198
0.021041657
0.021302496
0.021562361
0.021821087
0.022078522
0.022334505
0.022588873
0.022841452
0.023092061
0.023340511
0.023586607
0.023830148
0.024070915
0.024308656
0.024542938
0.024773026
0.024998092
0.025217299
0.025429817
0.025634809
0.025831446
0.026018921
0.02619638
0.026362981
0.026517915
0.026660331
0.026789483
0.026904987
0.02700662
0.02709424
0.027167754
0.0272271
0.027272274
0.027303319
0.027320306
0.021106733
0.021006092
0.020902594
0.02079669
0.020688816
0.020579395
0.020468856
0.020357615
0.02024593
0.020133971
0.020021952
0.019910114
0.019798778
0.019687012
0.01957393
0.019458268
0.019339595
0.019217746
0.019092623
0.018964176
0.01883248
0.018698054
0.018561679
0.018424181
0.01828641
0.018149266
0.018013732
0.017880913
0.017752112
0.017628958
0.017513397
0.01740793
0.017315554
0.017239831
0.017183854
0.017147999
0.017130842
0.017130111
0.017143287
0.017167089
0.017197972
0.01723329
0.017276239
0.016738039
0.01676706
0.016802289
0.016837776
0.016883179
0.016943341
0.017021484
0.017120534
0.017242424
0.017387429
0.017552861
0.017735091
0.017931049
0.018138201
0.018354621
0.0185787
0.018809134
0.01904481
0.019284714
0.019527883
0.01977337
0.020020227
0.020267499
0.020514403
0.02076064
0.02100609
0.021250642
0.021494184
0.021736597
0.021977755
0.022217525
0.022455765
0.02269233
0.022927063
0.023159794
0.023390316
0.023618246
0.023842904
0.024063512
0.024279275
0.024489389
0.024693041
0.02488941
0.025077684
0.025256989
0.025426447
0.0255852
0.025732337
0.025867035
0.025988823
0.026097374
0.026192444
0.026273829
0.026341355
0.026394907
0.026434419
0.026459858
0.020317017
0.020221678
0.020123861
0.020024002
0.019922543
0.019819939
0.019716672
0.019613254
0.019509975
0.019407047
0.019304694
0.019202156
0.019098695
0.01899355
0.018885846
0.018775503
0.018662384
0.018546365
0.018427354
0.018305302
0.018180276
0.018052757
0.017923472
0.017793189
0.017662699
0.017532845
0.017404548
0.017278847
0.01715697
0.017040453
0.016931137
0.016831388
0.016744045
0.016672485
0.016619638
0.016585859
0.016569802
0.016569309
0.016581984
0.016604724
0.016634225
0.016667914
0.016709232
0.016201149
0.016228969
0.016263005
0.016296926
0.016340225
0.016397468
0.016471676
0.01656561
0.016681079
0.016818329
0.016974804
0.017147069
0.017332228
0.017527892
0.017732253
0.017943803
0.018161327
0.01838379
0.018610255
0.018839835
0.019071663
0.019304867
0.019538576
0.019772077
0.020005119
0.020237616
0.020469495
0.02070068
0.020931091
0.021160641
0.021389236
0.021616777
0.021843158
0.022068265
0.022291969
0.022514106
0.022734338
0.022952045
0.023166503
0.023376965
0.023582667
0.023782827
0.023976644
0.024163318
0.024341976
0.024511731
0.024671697
0.024820929
0.024958556
0.025084043
0.025196989
0.025297066
0.025383986
0.025457487
0.025517364
0.025563463
0.025595666
0.019587443
0.019497169
0.019404833
0.019310885
0.019215807
0.019120096
0.019024185
0.018928687
0.018833657
0.018738538
0.018642788
0.018545876
0.018446856
0.018345754
0.018242382
0.018136604
0.018028297
0.017917352
0.017803684
0.017687244
0.017568093
0.017446676
0.017323673
0.017199802
0.017075802
0.016952462
0.01683065
0.016711342
0.016595698
0.016485171
0.016381502
0.016286935
0.016204164
0.016136394
0.016086402
0.016054524
0.016039479
0.016039216
0.016051448
0.016073232
0.016101488
0.016133695
0.01617351
0.015692878
0.015719615
0.015752564
0.015785061
0.015826448
0.01588103
0.015951646
0.016040899
0.016150486
0.016280623
0.01642887
0.016591969
0.016767175
0.016952234
0.017145438
0.017345373
0.017550899
0.017761054
0.017974966
0.018191815
0.018410801
0.018631124
0.018851979
0.019072721
0.019293136
0.019513166
0.019732769
0.019951897
0.020170501
0.020388528
0.020605916
0.020822601
0.021038511
0.021253568
0.021467679
0.021680716
0.021892388
0.022102128
0.022309268
0.022513114
0.022712945
0.022908019
0.023097566
0.023280809
0.023456893
0.023624934
0.023784044
0.023933265
0.024071698
0.024198768
0.024314018
0.024417062
0.024507547
0.024585141
0.02464957
0.024700609
0.024738071
0.018912851
0.018827609
0.018740767
0.018652722
0.018563976
0.018475089
0.018386011
0.018296666
0.018206897
0.018116245
0.018023982
0.017930141
0.017834516
0.017736984
0.017637408
0.01753566
0.017431626
0.017325204
0.017216312
0.017104903
0.016991027
0.016875103
0.016757767
0.01663969
0.016521567
0.01640414
0.016288223
0.016174741
0.016064788
0.015959739
0.015861246
0.015771438
0.015692874
0.015628601
0.015581257
0.015551152
0.015537069
0.015537046
0.015548905
0.015569842
0.015596985
0.015627853
0.015666292
0.015210809
0.015236575
0.015268537
0.015299747
0.015339402
0.015391562
0.015458897
0.015543869
0.015648069
0.015771683
0.015912377
0.01606705
0.016233097
0.01640838
0.016591287
0.016780482
0.016974895
0.017173624
0.017375858
0.017580834
0.017787812
0.017996051
0.018204812
0.018413502
0.01862194
0.018830091
0.019037937
0.019245453
0.019452616
0.019659399
0.019865768
0.020071684
0.020277107
0.020481988
0.020686263
0.020889839
0.021092463
0.021293619
0.021492696
0.021689048
0.021882004
0.022070864
0.022254897
0.022433356
0.022605414
0.022770204
0.022926851
0.023074401
0.023211948