y,U_0,U_1,U_2
0.4481146,0,0,0
0.44853879,0.020240595,0.0019453364,1.548266e-17
0.44897681,0.027134631,0.0035982769,5.6435478e-18
0.44942906,0.03096532,0.0054807637,-1.1758161e-17
0.44989599,0.035308996,0.0076925373,1.0974783e-17
0.4503781,0.040128251,0.010223641,1.8586846e-17
0.45087586,0.045391211,0.013046579,5.6919547e-18
0.4513898,0.05105421,0.016129833,-3.1191666e-17
0.45192042,0.057052244,0.019440583,-3.3463249e-17
0.45246829,0.063293835,0.022942543,2.900243e-17
0.45303395,0.069663601,0.026594529,4.4926753e-17
0.45361798,0.076033665,0.0303507,-2.9590896e-17
0.45422098,0.082281474,0.034161921,-2.1888071e-17
0.45484357,0.088307555,0.037980715,-8.2287282e-19
0.45548638,0.094045181,0.041764756,1.7666483e-18
0.45615006,0.099459899,0.045480101,8.9395959e-18
0.45683531,0.10454179,0.049103082,-3.6722429e-17
0.4575428,0.10929452,0.052619467,8.991212e-18
0.45827328,0.11372614,0.056023451,2.0378482e-17
0.45902747,0.11784402,0.05931604,-1.7172232e-17
0.45980616,0.12165725,0.062503215,-1.0521661e-17
0.46061014,0.12518299,0.065595003,2.9169972e-17
0.46144023,0.12844438,0.068604727,2.0237246e-17
0.46229727,0.13146766,0.071547767,-1.9173465e-17
0.46318214,0.13429064,0.074439205,-8.0060714e-18
0.46409575,0.13696546,0.077292598,4.0897706e-18
0.46503902,0.13953489,0.080141722,8.9437719e-18
0.46601292,0.14246486,0.083005461,-2.5320547e-19
0.46701845,0.14662179,0.085883594,-5.6732082e-18
0.46805662,0.15164718,0.088847481,2.7712952e-19
0.46912849,0.15559825,0.091923984,1.4831157e-17
0.47023517,0.15735972,0.094989318,-5.5535749e-18
0.47137778,0.15808193,0.097852373,-2.5753467e-17
0.47255748,0.1594508,0.1004092,-1.8568245e-18
0.47377548,0.16170202,0.10277899,9.0669703e-18
0.47503301,0.16416008,0.10514302,1.2088059e-18
0.47633137,0.16668814,0.10753582,4.732668e-18
0.47767188,0.16982168,0.10987486,-6.5359203e-18
0.47905589,0.17380842,0.11215787,-2.0767338e-18
0.48048483,0.17792019,0.11455838,1.4169788e-17
0.48196014,0.18128646,0.11719151,3.3186118e-18
0.48348334,0.1839501,0.11986153,-1.4884493e-17
0.48505597,0.18627921,0.12239367,-6.5042956e-18
0.48667964,0.18866459,0.12487176,8.4346268e-19
0.48835599,0.19155276,0.1273411,6.4573683e-18
0.49008674,0.19473034,0.1298525,7.4314047e-18
0.49187366,0.19768792,0.13245973,-1.6684994e-18
0.49371855,0.20018604,0.13533503,8.8400436e-19
0.4956233,0.20286537,0.13844179,-8.9149535e-18
0.49758984,0.20788893,0.14074295,-2.2403157e-18
0.49962018,0.21499427,0.14231837,2.9536407e-18
0.50171638,0.21901328,0.14525261,2.9824819e-18
0.50388058,0.21885992,0.14940767,7.5301924e-18
0.50611498,0.21878483,0.15278623,2.0658444e-18
0.50842185,0.2206189,0.15492974,-5.3092618e-18
0.51080353,0.22349529,0.15666114,-2.3573194e-19
0.51326245,0.22635022,0.15865396,-4.095858e-19
0.51580111,0.22898978,0.16081034,-3.3952443e-18
0.51842208,0.23143414,0.16288628,-2.5247164e-19
0.52112804,0.23367534,0.16482675,3.8124335e-18
0.52392172,0.23522137,0.16734009,6.3108124e-18
0.52680597,0.23685184,0.16969732,2.2592714e-18
0.52978371,0.24023904,0.17033082,-1.177175e-19
0.53285797,0.24277141,0.1720783,-1.8104188e-18
0.53603187,0.24320102,0.1756994,-2.8495802e-18
0.53930862,0.24457256,0.17773453,-8.2236703e-19
0.54269156,0.24728064,0.17814002,-9.644311e-19
0.54618412,0.24936933,0.1793563,-1.3413594e-18
0.54978982,0.25083827,0.18109006,-4.2806428e-19
0.55351233,0.25303708,0.18201016,2.3861553e-18
0.55735543,0.25446895,0.18412568,1.6353122e-18
0.561323,0.25486913,0.18681487,-1.2688161e-18
0.56541906,0.25597101,0.18801992,2.7042732e-18
0.56964776,0.25716265,0.18918555,-2.3718451e-19
0.57177618,0.25754492,0.19008215,-7.5853013e-19
0.57401366,0.25794214,0.19105944,-1.3048684e-18
0.57852116,0.258637,0.19322905,1.0928182e-18
0.58317458,0.25925252,0.19562238,-1.7608203e-18
0.5879786,0.25974049,0.1982519,-7.9614241e-20
0.5929381,0.2599187,0.20141622,-8.9356548e-19
0.59805807,0.25973864,0.2051182,-1.8264429e-18
0.60334368,0.26013042,0.20828218,3.3380585e-19
0.60880029,0.26183798,0.21191104,1.0888278e-18
0.61443337,0.26386659,0.21796419,4.8224943e-19
0.62024863,0.26538036,0.22445917,-6.8967509e-19
0.62625192,0.26644776,0.22975157,-3.0031756e-19
0.63244929,0.26642623,0.23438984,6.9523236e-19
0.63884698,0.26555007,0.23664213,9.6439982e-20
0.64545143,0.26658882,0.23975739,-2.4335092e-21
0.65226929,0.27018129,0.24711092,3.9517747e-19
0.65930742,0.27407262,0.25301217,-2.6815154e-19
0.66657289,0.27664122,0.25523214,-2.5309167e-19
0.67407299,0.27758314,0.25662911,8.827696e-21
0.68181526,0.27763412,0.25785927,3.4608252e-20
0.68980747,0.27724154,0.25855261,-6.0821659e-20
0.69805763,0.2763889,0.25860582,1.3920678e-19
0.70657401,0.2749412,0.25812989,-1.5497135e-19
0.71536515,0.27242685,0.25711208,2.4423602e-20
0.72443983,0.26870613,0.25488975,4.1293434e-19
0.73380715,0.26536124,0.25155843,-4.0546873e-19
0.74347646,0.26488847,0.24805892,1.1934717e-19
0.75345743,0.2686116,0.24395176,-6.8911081e-19
0.76376001,0.27714727,0.23903207,-6.2091794e-19
0.77439449,0.28946574,0.23421892,5.1825158e-19
0.78537146,0.30275599,0.22938667,-2.8993702e-19
0.79670186,0.31454534,0.22451559,7.4232954e-20
0.80839697,0.32340735,0.22029744,5.4352804e-19
0.8204684,0.32986801,0.21686738,6.4670493e-19
0.83292817,0.33713543,0.21339817,-2.7349537e-19
0.84578863,0.34820536,0.20909721,-8.1863801e-19
0.85906255,0.36156521,0.20399771,-1.0845151e-19
0.87276307,0.37386727,0.19852542,2.4871477e-19
0.88690376,0.38417413,0.19317003,1.7503692e-19
0.9014986,0.39337158,0.18820174,-1.9354331e-20
0.91656202,0.40264032,0.18372265,1.9396644e-20
0.93210888,0.41297266,0.17970084,2.4222798e-19
0.94815452,0.42498993,0.176006,-4.3421997e-19
0.96471474,0.43885007,0.17249075,-4.1653809e-19
0.98180582,0.45437055,0.16904656,-6.090403e-21
0.99944458,0.47123863,0.16559853,2.3386515e-19
1.0176483,0.48912547,0.16211091,-1.2402738e-19
1.0364349,0.50773676,0.15858797,6.3979769e-20
1.0558227,0.5268365,0.1550591,2.1684489e-19
1.0758308,0.5462518,0.15156259,-1.7444722e-20
1.0964785,0.56586471,0.14813324,-4.8530058e-20
1.1177862,0.58559701,0.14479508,-2.9680845e-20
1.1397745,0.60539441,0.14155833,9.014176e-20
1.1624649,0.62521449,0.13841939,-8.407406e-20
1.1858794,0.64501931,0.13536281,-8.1361062e-20
1.2100408,0.66477049,0.13236434,3.4269484e-20
1.2349723,0.68442583,0.12939425,4.4150527e-20
1.2606983,0.70393843,0.12642013,-1.8619097e-20
1.2872435,0.72325744,0.12340952,1.4976382e-20
1.3146335,0.74232903,0.12033275,-3.1149638e-20
1.3209788,0.74654689,0.11962341,-2.2805945e-20
1.3428965,0.76109566,0.11715235,4.8827672e-21
1.3720585,0.77950224,0.11386103,-5.4656709e-20
1.4021469,0.7974973,0.11045434,9.9537032e-21
1.4331904,0.81503348,0.10693353,8.9017441e-20
1.4652188,0.83207024,0.10330927,1.4922617e-21
1.4982627,0.84857613,0.099600361,-5.7448174e-21
1.5323536,0.86453121,0.095831461,-5.7477088e-20
1.567524,0.8799288,0.092030315,-5.4815033e-21
1.6038071,0.89477601,0.088224803,1.5806929e-20
1.6412376,0.90909285,0.084439813,1.3369244e-20
1.6798508,0.92290815,0.08069432,1.0688528e-20
1.7196831,0.93624911,0.077009502,1.5646023e-20
1.7607723,0.94906433,0.073427712,-2.039342e-20
1.8018234,0.96110378,0.070033649,-1.1380386e-20
1.8415466,0.97212182,0.066900606,3.0455561e-20
1.8799862,0.98209909,0.064021649,-3.3678048e-20
1.9171847,0.99111227,0.061355311,2.0772256e-20
1.9531836,0.99922742,0.058872653,2.64373e-20
1.9880224,1.0065039,0.056552607,4.9849597e-21
2.0217396,1.0130054,0.054380555,-2.0342348e-20
2.0543721,1.0188317,0.052339796,6.9419384e-22
2.0859558,1.0241211,0.050404456,2.4699346e-20
2.116525,1.0289825,0.048553359,-3.2471486e-20
2.13776,1.0322054,0.047283263,-2.2011621e-20
2.1461135,1.0334726,0.046782782,-1.7672011e-20
2.1747538,1.0376271,0.04509283,2.7176602e-20
2.2024761,1.0414736,0.0434818,1.2545317e-20
2.2293103,1.0450348,0.041946397,-5.5716723e-21
2.2552856,1.0483295,0.040483239,-9.4646173e-21
2.2804299,1.0513736,0.039088812,-8.3608451e-21
2.3047701,1.0541809,0.037759582,-7.8298281e-21
2.3283326,1.0567637,0.036491994,9.9735488e-21
2.3511425,1.0591326,0.035282601,2.8971016e-21
2.3732242,1.0612968,0.034128154,-9.2244638e-21
2.3946014,1.0632649,0.033025502,4.2237534e-21
2.4152968,1.0650449,0.031971632,-7.8282582e-22
2.4353325,1.0666436,0.030963737,-5.4493691e-21
2.4547298,1.0680672,0.029999177,-1.6342002e-21
2.4735093,1.0693212,0.029075478,1.7258363e-21
2.4916909,1.0704105,0.02819032,-5.3014544e-21
2.509294,1.0713392,0.027341533,5.2129904e-21
2.526337,1.0721111,0.02652709,5.4720397e-21
2.542838,1.0727291,0.025745093,-7.166081e-22
2.5588145,1.0731959,0.024993768,-3.2690128e-21
2.5742833,1.0735134,0.024271452,5.3151964e-21
2.5892607,1.0736834,0.023576589,-4.2044585e-21
2.6037624,1.0737069,0.022907719,-3.7872399e-21
2.6178038,1.0735847,0.02226347,1.0626907e-20
2.6313994,1.0733171,0.021642556,-9.1526875e-21
2.6445637,1.072904,0.021043765,-5.2280632e-21
2.6573104,1.0723453,0.020465957,1.7366449e-21
2.6696528,1.0716403,0.019908058,6.1297054e-22
2.6816039,1.0707883,0.019369055,2.1932475e-22
2.6931762,1.0697886,0.018847993,-3.8409281e-22
2.7043818,1.0686401,0.018343972,-5.343471e-21
2.7152323,1.0673421,0.017856142,3.562312e-22
2.7257392,1.0658936,0.017383704,1.1251946e-20
2.7359133,1.0642941,0.016925901,3.63796e-21
2.7457652,1.0625431,0.016482027,-4.622228e-21
2.7553053,1.0606404,0.016051422,-4.9252394e-21
2.7645435,1.0585862,0.015633451,1.8557625e-21
2.7734893,1.0563809,0.015227507,4.1599921e-21
2.782152,1.054026,0.014833059,6.0484003e-21
2.7905408,1.051523,0.014449591,1.5318089e-22
2.7986642,1.0488734,0.014076599,-6.0099902e-21
2.8065307,1.0460789,0.013713614,-8.2573129e-21
2.8141485,1.0431417,0.013360186,3.9079676e-21
2.8215254,1.0400636,0.013015884,8.8544301e-22
2.8286692,1.0368461,0.012680291,-6.1783946e-21
2.8355872,1.0334909,0.012352939,3.0384165e-21
2.8422866,1.0299999,0.012033396,1.1565416e-21
2.8487743,1.0263767,0.011721329,6.5175419e-22
2.8550571,1.0226254,0.011416449,3.8794517e-21
2.8611414,1.0187504,0.011118492,1.7888569e-21
2.8670335,1.0147561,0.010827186,-5.7242677e-21
2.8727395,1.0106476,0.010542291,-2.2976212e-22
2.8782654,1.0064298,0.01026365,1.3528555e-22
2.8836168,1.0021076,0.0099911424,2.0737511e-21
2.8887992,0.99768574,0.0097245951,-1.6550739e-21
2.893818,0.99316952,0.0094638026,-1.3409137e-21
2.8986784,0.98856398,0.0092084505,5.3235333e-21
2.9033854,0.98387413,0.008958127,4.6873531e-21
2.9079439,0.97910556,0.0087124915,-3.913239e-21
2.9123585,0.97426409,0.008471299,-7.4103476e-21
2.9166338,0.96935549,0.008234404,5.9743339e-21
2.9207742,0.96438509,0.0080017264,-1.9117127e-21
2.924784,0.95935689,0.0077732077,7.6060312e-22
2.9286673,0.9542732,0.0075487718,2.8072093e-21
2.9324281,0.94913569,0.007328326,-5.4010066e-21
2.9360703,0.94394601,0.0071118363,-6.5284425e-22
2.9395976,0.9387054,0.0068993181,2.4167721e-21
2.9430137,0.93341435,0.0066907762,-1.655593e-21
2.946322,0.92807244,0.0064861993,-3.3850588e-21
2.949526,0.92267834,0.0062855724,1.7111764e-21
2.952629,0.91722975,0.0060888848,1.7043217e-21
2.9556341,0.9117236,0.0058961385,1.8115104e-21
2.9585445,0.90615641,0.0057073667,8.033553e-22
2.9613632,0.90052404,0.0055226517,-2.2935328e-21
2.964093,0.89482068,0.0053421175,2.2115816e-22
2.9667367,0.88903819,0.005165879,3.4246753e-21
2.9692971,0.88316678,0.0049940459,-1.8940431e-21
2.9717768,0.87719539,0.0048267579,-8.9727488e-22
2.9741784,0.87111132,0.0046641347,8.8764384e-22
2.9765042,0.86490063,0.0045062302,2.2304609e-21
2.9787568,0.85854827,0.0043530854,-7.6582069e-22
2.9809383,0.85203685,0.0042047087,-4.1279577e-21
2.9830511,0.8453464,0.0040610367,5.9569583e-23
2.9850974,0.83845491,0.0039219846,-3.9771472e-22
2.9870791,0.83133848,0.0037874488,7.722866e-22
2.9889984,0.82397154,0.0036573029,-8.3210303e-23
2.9908573,0.81632701,0.0035314047,8.0121457e-22
2.9926575,0.80837645,0.0034095887,5.1163784e-22
2.9944011,0.80009016,0.0032916118,-2.1775466e-21
2.9960897,0.79143743,0.0031770626,3.0528184e-22
2.9977251,0.78238329,0.003065926,2.8174401e-22
2.999309,0.77286865,0.0029586719,2.6351701e-21
3.000843,0.76280791,0.0028552381,-2.8913645e-22
3.0023287,0.75212814,0.0027551516,-5.1253663e-21
3.0037676,0.74078468,0.002657843,1.9810197e-21
3.0051611,0.72874906,0.0025622572,5.3217344e-22
3.0065108,0.71600429,0.0024669405,-1.3402615e-22
3.0078179,0.70254031,0.0023701919,8.7432711e-22
3.0090839,0.68835438,0.0022701177,-1.640869e-21
3.01031,0.67345412,0.0021649694,1.0863341e-21
3.0114975,0.65785113,0.0020536334,1.2825682e-21
3.0126476,0.64155162,0.0019359308,2.2555027e-21
3.0137614,0.62455171,0.0018126625,-2.9439071e-22
3.0148402,0.60684126,0.001685509,-3.9470956e-22
3.015885,0.58841601,0.0015567386,1.2284291e-21
3.0168969,0.5692827,0.0014287776,-2.507125e-21
3.017877,0.54946178,0.0013038823,-7.28905e-22
3.0188261,0.52899722,0.0011839124,2.0632627e-21
3.0197454,0.50796074,0.001070248,1.4456232e-21
3.0206357,0.48644646,0.00096379723,-1.0530786e-21
3.021498,0.46456335,0.00086497613,-1.7417791e-21
3.0223332,0.44242813,0.00077373723,8.7788863e-23
3.023142,0.42015793,0.00068971173,1.4194244e-22
3.0239254,0.3978612,0.00061236862,-1.044351e-21
3.0246841,0.37563132,0.00054112359,1.1700643e-22
3.0254189,0.35354682,0.00047542289,1.3921272e-21
3.0261306,0.3316732,0.00041479852,-1.9764135e-22
3.0268199,0.31006366,0.00035894692,-1.4951678e-21
3.0274874,0.28875979,0.00030772179,1.1807982e-22
3.028134,0.26779288,0.00026108106,3.278338e-22
3.0287602,0.24717923,0.00021910145,2.380674e-22
3.0293667,0.22692566,0.00018179018,4.6950064e-22
3.029954,0.20704715,0.00014905485,-5.3097589e-22
3.0305229,0.18755931,0.00012074277,8.8237803e-23
3.0310739,0.16846758,9.6509556e-05,2.0559551e-23
3.0316075,0.14977798,7.5905057e-05,-1.2722883e-22
3.0321244,0.13150127,5.8513633e-05,1.2045379e-22
3.0326249,0.11364503,4.4003883e-05,9.2669116e-23
3.0331097,0.096210411,3.2077454e-05,9.103242e-23
3.0335792,0.079194559,2.2472357e-05,8.5480662e-23
3.034034,0.062592588,1.4967549e-05,4.6418377e-23
3.0344744,0.046398691,9.3661364e-06,-3.7393242e-23
3.034901,0.030606704,6.3746033e-06,-2.3400851e-23
3.0353141,0.01519593,3.3135882e-06,-1.4886271e-23
3.0357143,0,0,0
