/*--------------------------------*- C++ -*----------------------------------*\
| =========                 |                                                 |
| \\      /  F ield         | OpenFOAM: The Open Source CFD Toolbox           |
|  \\    /   O peration     | Version:  2.4.0                                 |
|   \\  /    A nd           | Web:      www.OpenFOAM.org                      |
|    \\/     M anipulation  |                                                 |
\*---------------------------------------------------------------------------*/
FoamFile
{
    version     2.0;
    format      ascii;
    class       volScalarField;
    location    "10000";
    object      omega;
}
// * * * * * * * * * * * * * * * * * * * * * * * * * * * * * * * * * * * * * //

dimensions      [0 0 -1 0 0 0 0];

internalField   nonuniform List<scalar> 
9842
(
129783.85
129783.85
129783.85
129783.85
129783.85
129783.85
129783.85
129783.85
129783.85
129783.85
129783.85
129783.85
129783.85
129783.85
129783.85
129783.85
129783.85
129783.85
129783.85
129783.85
129783.85
129783.85
129783.84
129783.85
129783.85
129783.85
129783.85
129783.84
129783.85
129783.85
129783.85
129783.85
129783.85
129783.85
129783.85
129783.85
129783.84
129783.85
129783.85
129783.84
129783.85
129783.85
129783.85
129783.85
129783.85
129783.84
129783.85
129783.85
129783.85
129783.85
129783.85
129783.85
129783.85
129783.85
129783.84
129783.85
129783.85
129783.85
129783.84
129783.85
21961.628
21961.626
21961.624
21961.621
21961.619
21961.618
21961.616
21961.615
21961.614
21961.612
21961.611
21961.609
21961.608
21961.606
21961.605
21961.603
21961.602
21961.601
21961.599
21961.598
21961.596
21961.594
21961.593
21961.591
21961.589
21961.588
21961.587
21961.585
21961.584
21961.582
21961.581
21961.579
21961.578
21961.577
21961.575
21961.574
21961.573
21961.572
21961.571
21961.569
21961.568
21961.567
21961.566
21961.565
21961.564
21961.563
21961.562
21961.561
21961.56
21961.56
21961.559
21961.558
21961.558
21961.557
21961.556
21961.556
21961.555
21961.555
21961.554
21961.554
7262.0791
7262.0766
7262.0738
7262.0709
7262.0679
7262.0649
7262.0623
7262.0595
7262.0566
7262.0536
7262.0504
7262.0472
7262.0438
7262.0404
7262.0369
7262.0333
7262.0296
7262.0259
7262.0222
7262.0183
7262.0145
7262.0105
7262.0067
7262.0027
7261.9989
7261.9949
7261.9911
7261.9871
7261.9832
7261.9795
7261.9756
7261.9719
7261.9681
7261.9644
7261.9609
7261.9572
7261.9539
7261.9503
7261.947
7261.9438
7261.9405
7261.9374
7261.9344
7261.9314
7261.9285
7261.9258
7261.923
7261.9205
7261.9179
7261.9155
7261.9132
7261.911
7261.9088
7261.9068
7261.9049
7261.9028
7261.9012
7261.8995
7261.8979
7261.8963
7261.895
3347.7812
3347.778
3347.7744
3347.7705
3347.7663
3347.7619
3347.7575
3347.7528
3347.7478
3347.7425
3347.737
3347.7312
3347.7252
3347.719
3347.7126
3347.706
3347.6993
3347.6924
3347.6854
3347.6782
3347.671
3347.6637
3347.6563
3347.6488
3347.6414
3347.6339
3347.6264
3347.6189
3347.6114
3347.604
3347.5965
3347.5892
3347.5819
3347.5747
3347.5676
3347.5606
3347.5537
3347.5469
3347.5402
3347.5337
3347.5272
3347.521
3347.5149
3347.5089
3347.5031
3347.4975
3347.492
3347.4867
3347.4815
3347.4765
3347.4717
3347.4671
3347.4626
3347.4584
3347.4543
3347.4503
3347.4466
3347.443
3347.4396
3347.4364
3347.4333
1857.5914
1857.5877
1857.5835
1857.5788
1857.5735
1857.5676
1857.5612
1857.5545
1857.5472
1857.5394
1857.5312
1857.5225
1857.5134
1857.5039
1857.494
1857.4838
1857.4732
1857.4624
1857.4512
1857.4399
1857.4283
1857.4165
1857.4046
1857.3925
1857.3804
1857.3681
1857.3558
1857.3435
1857.3312
1857.3189
1857.3066
1857.2943
1857.2822
1857.2701
1857.2582
1857.2464
1857.2347
1857.2232
1857.2118
1857.2007
1857.1898
1857.1791
1857.1686
1857.1583
1857.1483
1857.1385
1857.129
1857.1198
1857.1108
1857.1021
1857.0937
1857.0855
1857.0777
1857.0701
1857.0628
1857.0558
1857.0491
1857.0426
1857.0365
1857.0306
1857.025
1857.0197
1156.0502
1156.0455
1156.04
1156.0336
1156.0263
1156.0181
1156.0091
1155.9994
1155.9889
1155.9776
1155.9656
1155.9529
1155.9396
1155.9256
1155.9111
1155.896
1155.8805
1155.8645
1155.8481
1155.8313
1155.8142
1155.7968
1155.7791
1155.7613
1155.7432
1155.7251
1155.7068
1155.6885
1155.6702
1155.6519
1155.6336
1155.6154
1155.5973
1155.5794
1155.5616
1155.544
1155.5266
1155.5094
1155.4925
1155.4758
1155.4595
1155.4435
1155.4278
1155.4124
1155.3974
1155.3828
1155.3685
1155.3547
1155.3412
1155.3282
1155.3155
1155.3033
1155.2915
1155.2801
1155.2691
1155.2585
1155.2484
1155.2387
1155.2294
1155.2205
1155.212
1155.2039
777.05524
777.04896
777.04147
777.03272
777.02277
777.01158
776.99919
776.98569
776.9711
776.95547
776.93885
776.92127
776.90281
776.88349
776.8634
776.84255
776.82103
776.79888
776.77617
776.75295
776.72927
776.7052
776.68078
776.65608
776.63115
776.60605
776.58082
776.55551
776.53017
776.50485
776.47959
776.45443
776.42942
776.40459
776.37999
776.35564
776.33157
776.30782
776.28442
776.26141
776.23885
776.21669
776.19496
776.17371
776.15296
776.13273
776.11302
776.09385
776.07523
776.05716
776.03966
776.02272
776.00636
775.99057
775.97537
775.96075
775.9467
775.93324
775.92035
775.90805
775.89631
775.88514
551.83795
551.83106
551.8224
551.81213
551.80021
551.78672
551.7716
551.75491
551.73675
551.71718
551.69625
551.67405
551.65062
551.62604
551.60037
551.57369
551.54607
551.51758
551.48829
551.45828
551.42762
551.39639
551.36467
551.33251
551.3
551.26722
551.23422
551.20107
551.16784
551.13459
551.10138
551.06826
551.03528
551.00251
550.97
550.93779
550.90593
550.87444
550.84339
550.81279
550.78272
550.75324
550.7243
550.69592
550.66818
550.64111
550.6147
550.58899
550.56399
550.53971
550.51615
550.49335
550.47129
550.44997
550.42942
550.40963
550.39061
550.37234
550.35484
550.33809
550.3221
550.30687
550.29236
408.36794
408.35814
408.34613
408.33209
408.31601
408.29797
408.27791
408.25589
408.23206
408.2065
408.17928
408.15049
408.12021
408.08853
408.05553
408.0213
407.98594
407.94953
407.91217
407.87396
407.83497
407.79532
407.75508
407.71435
407.67321
407.63177
407.5901
407.54828
407.5064
407.46452
407.42272
407.38107
407.33963
407.29848
407.25768
407.21729
407.17735
407.13791
407.09903
407.06076
407.02316
406.98631
406.95016
406.91472
406.88011
406.84634
406.81342
406.78139
406.75025
406.72003
406.69073
406.66236
406.63495
406.60848
406.58297
406.55842
406.53483
406.51221
406.49054
406.46983
406.45007
406.43125
406.41336
312.0306
312.01674
312.00026
311.98133
311.95998
311.93628
311.91018
311.88176
311.85122
311.81863
311.78411
311.74775
311.70966
311.66994
311.62869
311.58604
311.54209
311.49695
311.45072
311.40353
311.35549
311.3067
311.25728
311.20733
311.15696
311.10628
311.05539
311.00437
310.95333
310.90236
310.85153
310.80094
310.75065
310.70076
310.65133
310.60243
310.55413
310.50647
310.45953
310.41335
310.36801
310.32361
310.28008
310.23744
310.19583
310.15525
310.11573
310.07729
310.03995
310.00374
309.96866
309.93472
309.90194
309.87033
309.83988
309.8106
309.7825
309.75557
309.72981
309.70521
309.68176
309.65947
309.63831
244.63003
244.61384
244.59465
244.57245
244.54742
244.51962
244.48911
244.45584
244.41996
244.38166
244.34106
244.29828
244.25345
244.20669
244.15812
244.10787
244.05606
244.00284
243.94832
243.89264
243.83594
243.77833
243.71995
243.66092
243.60138
243.54143
243.4812
243.42081
243.36037
243.29998
243.23974
243.17975
243.1201
243.06089
243.00221
242.94412
242.88672
242.83007
242.77423
242.71928
242.66528
242.61232
242.56048
242.5097
242.45999
242.41154
242.36433
242.31838
242.27374
242.23041
242.18841
242.14777
242.10849
242.07058
242.03406
241.99891
241.96516
241.9328
241.90183
241.87223
241.84402
241.81716
241.79165
241.76752
195.85851
195.83605
195.81019
195.78099
195.74864
195.71321
195.67477
195.63326
195.58891
195.54192
195.49244
195.44061
195.38656
195.33044
195.2724
195.21259
195.15114
195.08821
195.02395
194.9585
194.89202
194.82464
194.75652
194.68778
194.61858
194.54905
194.47931
194.40951
194.33976
194.27017
194.20085
194.13192
194.06348
193.99563
193.92845
193.86205
193.7965
193.73187
193.66825
193.6057
193.5443
193.48414
193.42531
193.36774
193.31144
193.25661
193.20324
193.15135
193.10098
193.05213
193.00485
192.95912
192.91499
192.87243
192.83148
192.79212
192.75437
192.71822
192.68366
192.6507
192.61932
192.58949
192.56122
159.61049
159.58412
159.55397
159.52013
159.4827
159.44188
159.39774
159.35036
159.2997
159.24606
159.18965
159.13063
159.06916
159.00541
158.93953
158.8717
158.80207
158.7308
158.65807
158.58403
158.50885
158.43269
158.35571
158.27807
158.19992
158.1214
158.04267
157.96387
157.88513
157.80659
157.72836
157.65057
157.57333
157.49675
157.42092
157.34597
157.27196
157.19901
157.12716
157.05652
156.98716
156.91914
156.85257
156.78755
156.72399
156.66188
156.60148
156.54274
156.48569
156.43036
156.37678
156.32496
156.27491
156.22665
156.18018
156.13551
156.09263
156.05156
156.0123
155.97482
155.93913
155.90521
155.87303
155.8426
131.99672
131.96163
131.92252
131.87956
131.83284
131.78258
131.72888
131.67181
131.61136
131.54789
131.48163
131.41274
131.34142
131.26784
131.19217
131.1146
131.0353
130.95445
130.87223
130.78882
130.70438
130.61909
130.53313
130.44664
130.3598
130.27276
130.18567
130.09869
130.01195
129.92559
129.83973
129.75449
129.67
129.58636
129.50367
129.42205
129.34158
129.26236
129.18445
129.10794
129.03291
128.95943
128.88761
128.81754
128.7491
128.6823
128.61743
128.55441
128.49328
128.43406
128.37677
128.32143
128.26805
128.21663
128.1672
128.11973
128.07424
128.03073
127.98919
127.94961
127.91199
127.8763
127.8425
110.53505
110.49012
110.44108
110.38813
110.3314
110.27112
110.20738
110.14023
110.06978
109.99638
109.92028
109.84166
109.76072
109.67765
109.59265
109.50589
109.41757
109.32787
109.23698
109.14509
109.05237
108.959
108.86515
108.77099
108.67669
108.5824
108.48828
108.39448
108.30114
108.20838
108.11635
108.02514
107.93489
107.8457
107.75768
107.67092
107.58551
107.50155
107.41909
107.33822
107.25902
107.18156
107.10595
107.03227
106.9604
106.89032
106.82235
106.75641
106.6925
106.63068
106.57094
106.51331
106.45778
106.40437
106.35308
106.30391
106.25685
106.2119
106.16906
106.12832
106.08965
106.05306
106.01848
93.546411
93.490984
93.431518
93.368228
93.301273
93.230875
93.157151
93.08012
92.999995
92.917131
92.831772
92.74412
92.654379
92.562746
92.469419
92.374593
92.278459
92.181208
92.083027
91.9841
91.884608
91.784727
91.684629
91.584482
91.484444
91.384671
91.285311
91.186515
91.088415
90.991134
90.894794
90.799509
90.70539
90.612538
90.521051
90.431021
90.342532
90.255672
90.17049
90.087064
90.005476
89.925782
89.848098
89.772503
89.698846
89.627094
89.557606
89.490262
89.425084
89.3621
89.301317
89.242743
89.186383
89.132242
89.080316
89.030598
88.983088
88.937782
88.894669
88.853733
88.814959
88.778335
79.874858
79.808929
79.73919
79.665868
79.589137
79.509223
79.426233
79.340187
79.251398
79.160199
79.066829
78.971498
78.87441
78.775764
78.675759
78.574586
78.472437
78.369498
78.265952
78.161977
78.057748
77.953436
77.849203
77.745209
77.641606
77.538537
77.436142
77.334563
77.233919
77.134324
77.03589
76.938719
76.842912
76.748562
76.655754
76.564572
76.47509
76.387386
76.301501
76.2175
76.135461
76.055432
75.977525
75.901814
75.82813
75.756422
75.687065
75.619929
75.555025
75.492378
75.431988
75.373862
75.317997
75.264396
75.213049
75.16395
75.117092
75.07247
75.030072
74.989879
74.951873
74.916045
68.709136
68.633503
68.554437
68.472176
68.386897
68.298821
68.208033
68.114591
68.018868
67.921162
67.821706
67.720705
67.618359
67.514859
67.410398
67.30516
67.199325
67.093069
66.986565
66.879978
66.773472
66.667203
66.561322
66.455972
66.351292
66.247412
66.144457
66.042553
65.941804
65.84231
65.744169
65.647469
65.552298
65.458733
65.366849
65.276716
65.188397
65.101956
65.017429
64.934863
64.854321
64.775855
64.699562
64.625514
64.55353
64.483537
64.415913
64.35053
64.287382
64.226493
64.167856
64.111473
64.057339
64.005449
63.955794
63.908363
63.863148
63.820141
63.779326
63.740685
63.7042
59.4719
59.388206
59.301587
59.212275
59.120449
59.026308
58.929909
58.831385
58.731109
58.629343
58.526308
58.422194
58.31719
58.211474
58.105223
57.998604
57.891784
57.784921
57.678169
57.571678
57.465592
57.360048
57.255181
57.151114
57.047968
56.945854
56.84488
56.745151
56.646757
56.549778
56.454296
56.360383
56.26811
56.177541
56.088735
56.001748
55.916629
55.833431
55.752178
55.672906
55.595659
55.520483
55.447469
55.376686
55.307946
55.241153
55.176674
55.114396
55.054291
54.996384
54.940662
54.887122
54.835755
54.786555
54.739508
54.694601
54.651825
54.61117
54.572619
54.536153
51.74787
51.658511
51.566821
51.473019
51.377269
51.279745
51.180479
51.079683
50.977685
50.874715
50.77097
50.666621
50.561838
50.456777
50.351595
50.246439
50.141452
50.036771
49.93253
49.828853
49.725865
49.623681
49.522412
49.422162
49.323029
49.225106
49.128478
49.033233
48.939439
48.847159
48.756457
48.667389
48.580009
48.494365
48.410503
48.328462
48.248281
48.169998
48.093626
48.019194
47.946727
47.876253
47.807869
47.741639
47.677376
47.614962
47.554736
47.496616
47.440547
47.386558
47.334628
47.284755
47.236924
47.191127
47.147349
47.105576
47.065796
47.027998
46.992167
46.958282
45.235072
45.142949
45.049121
44.953786
44.857086
44.759155
44.660026
44.559957
44.459214
44.35799
44.256455
44.154756
44.053036
43.951428
43.850063
43.749062
43.648544
43.548621
43.449401
43.350988
43.253478
43.156966
43.06154
42.96728
42.874263
42.782562
42.692243
42.603372
42.515999
42.43017
42.345932
42.263324
42.182385
42.10315
42.025649
41.949911
41.87596
41.803824
41.733507
41.665028
41.598402
41.533634
41.47082
41.410033
41.35109
41.293853
41.238622
41.185353
41.133967
41.084496
41.036917
40.991222
40.947398
40.905433
40.865313
40.827021
40.790547
40.755879
40.723002
40.691897
39.71047
39.618635
39.525701
39.431834
39.337145
39.24173
39.145643
39.04914
38.952425
38.855654
38.758968
38.662484
38.56632
38.47058
38.375368
38.280779
38.186906
38.093837
38.001655
37.910438
37.820261
37.731196
37.643307
37.556656
37.471299
37.387288
37.304673
37.223501
37.143805
37.065617
36.988967
36.913882
36.840388
36.768506
36.698256
36.629655
36.562718
36.497461
36.433884
36.371997
36.311808
36.253305
36.196568
36.141694
36.088507
36.036852
35.986982
35.938898
35.892498
35.847818
35.804832
35.763531
35.723903
35.685933
35.649608
35.614912
35.581835
35.550364
35.520487
35.492185
35.005371
34.916661
34.827387
34.737679
34.647616
34.557254
34.466683
34.376115
34.285703
34.195568
34.105819
34.016547
33.927839
33.839775
33.752433
33.665883
33.580193
33.495427
33.411647
33.328907
33.247264
33.166767
33.087463
33.009395
32.932601
32.857118
32.78298
32.710219
32.638855
32.568905
32.50039
32.433324
32.367724
32.303601
32.240965
32.179826
32.120191
32.062069
32.005454
31.950351
31.896764
31.844672
31.794127
31.745253
31.697894
31.651877
31.607406
31.564525
31.523116
31.483218
31.444803
31.407864
31.372386
31.338358
31.305765
31.274593
31.244832
31.216471
31.189499
31.163899
30.988102
30.904843
30.821453
30.738024
30.654598
30.571218
30.487985
30.405059
30.32255
30.240549
30.159132
30.078367
29.998317
29.919035
29.840579
29.762996
29.686333
29.610635
29.535942
29.462294
29.389727
29.318274
29.247968
29.178836
29.110903
29.044193
28.978728
28.914528
28.851603
28.789961
28.729614
28.670569
28.612833
28.556411
28.501309
28.447528
28.395072
28.343943
28.294133
28.245644
28.198475
28.152605
28.108057
28.064974
28.023228
27.982636
27.943346
27.90545
27.868812
27.833477
27.799416
27.766623
27.735083
27.704787
27.67572
27.647871
27.62123
27.595788
27.571534
27.548455
27.552333
27.476176
27.400202
27.324472
27.248995
27.173814
27.099019
27.024725
26.951006
26.877924
26.805535
26.733881
26.663006
26.592943
26.523731
26.455399
26.387978
26.321496
26.255979
26.191452
26.127938
26.065459
26.004033
25.943678
25.884408
25.826239
25.769184
25.713253
25.658451
25.60478
25.552243
25.500844
25.450584
25.401465
25.353487
25.30665
25.260952
25.216392
25.172964
25.130663
25.089489
25.049423
25.010465
24.972761
24.936224
24.900661
24.866171
24.832883
24.800653
24.769528
24.739479
24.710502
24.682584
24.655716
24.629886
24.605082
24.581298
24.558524
24.536753
24.515972
24.609663
24.541553
24.473832
24.406527
24.33963
24.273187
24.207262
24.141937
24.077256
24.013262
23.949988
23.887461
23.825709
23.76475
23.704607
23.645298
23.586839
23.529247
23.472538
23.416726
23.361824
23.307845
23.2548
23.202697
23.151546
23.101355
23.052131
23.003881
22.956602
22.910293
22.864955
22.820587
22.777189
22.734759
22.693295
22.652795
22.613255
22.574674
22.537043
22.500359
22.464619
22.429806
22.395911
22.363067
22.331228
22.300204
22.270042
22.240906
22.212644
22.185307
22.158868
22.133322
22.108659
22.084871
22.061947
22.039879
22.018659
21.998281
21.978738
22.085172
22.025434
21.966193
21.907453
21.849198
21.79147
21.734311
21.677775
21.621886
21.566671
21.512149
21.458333
21.40524
21.352876
21.301255
21.250385
21.200273
21.150929
21.102361
21.054575
21.00758
20.96138
20.915982
20.87139
20.827609
20.784643
20.742495
20.701168
20.660659
20.620964
20.582081
20.544009
20.506744
20.470285
20.434629
20.399772
20.365711
20.332443
20.29996
20.268259
20.237336
20.207178
20.17777
20.149228
20.121542
20.094531
20.068198
20.042731
20.017978
19.993989
19.97074
19.948227
19.926443
19.905379
19.885027
19.86538
19.846431
19.828176
19.81061
19.914818
19.863293
19.812299
19.761824
19.711851
19.662415
19.61354
19.565258
19.51758
19.470523
19.424093
19.378296
19.33314
19.288625
19.244758
19.201539
19.158973
19.117061
19.075808
19.035215
18.995288
18.956027
18.917435
18.879515
18.842267
18.805695
18.769799
18.734582
18.700037
18.66616
18.63295
18.600404
18.568519
18.537291
18.506719
18.476799
18.447528
18.418902
18.390915
18.363563
18.336844
18.310746
18.285255
18.260467
18.236399
18.212887
18.189895
18.167629
18.145937
18.124871
18.104408
18.084547
18.065278
18.046598
18.028499
18.010974
17.99402
17.977631
17.961805
18.043835
18.000031
17.956742
17.913944
17.871626
17.829808
17.788506
17.747734
17.707497
17.667802
17.628649
17.590039
17.551975
17.514451
17.477471
17.441032
17.405134
17.369776
17.334961
17.300687
17.266956
17.233768
17.201124
17.169025
17.137472
17.106464
17.076004
17.046092
17.016721
16.987889
16.959593
16.93183
16.904598
16.877894
16.851716
16.826061
16.800926
16.776308
16.752202
16.728605
16.705515
16.682921
16.660812
16.639268
16.618322
16.597832
16.577729
16.55823
16.539188
16.520653
16.502604
16.485041
16.467957
16.451349
16.435209
16.419534
16.40432
16.389563
16.425581
16.388815
16.352512
16.316649
16.281212
16.246217
16.211668
16.177572
16.143926
16.110734
16.077991
16.045695
16.013847
15.982437
15.951468
15.920935
15.890835
15.861167
15.831932
15.803126
15.774752
15.746807
15.719294
15.69221
15.665558
15.639337
15.613549
15.588193
15.563264
15.53876
15.514678
15.491016
15.467772
15.444944
15.42253
15.400528
15.378936
15.357751
15.33697
15.31659
15.296609
15.27702
15.257813
15.239054
15.220785
15.20289
15.185271
15.168151
15.151389
15.135035
15.119068
15.10349
15.088295
15.073479
15.059039
15.044971
15.031271
15.017937
15.020575
14.990075
14.95997
14.930238
14.900866
14.871863
14.843228
14.814962
14.787059
14.75952
14.732338
14.705509
14.679034
14.6529
14.62711
14.601657
14.57654
14.551756
14.527305
14.503183
14.479393
14.455933
14.432803
14.410003
14.387533
14.365396
14.343592
14.322121
14.300978
14.280161
14.259669
14.239499
14.219652
14.200126
14.180919
14.162029
14.143456
14.125198
14.107252
14.089616
14.072289
14.055265
14.038538
14.02216
14.006181
13.990505
13.975015
13.959936
13.945131
13.93065
13.916475
13.902606
13.88904
13.875775
13.862806
13.850131
13.837748
13.795597
13.770579
13.745882
13.721487
13.697379
13.673564
13.650039
13.6268
13.603839
13.581157
13.558746
13.536601
13.514722
13.493097
13.471728
13.450609
13.429738
13.409112
13.388732
13.368594
13.3487
13.329049
13.309642
13.290478
13.27156
13.252888
13.234464
13.216288
13.198356
13.180667
13.163221
13.146015
13.129051
13.112327
13.095843
13.079597
13.063589
13.047819
13.032284
13.016982
13.001915
12.987077
12.972465
12.95812
12.944095
12.930315
12.916649
12.903316
12.890191
12.877319
12.864683
12.852287
12.840126
12.8282
12.816504
12.805038
12.7938
12.72283
12.702546
12.682511
12.662705
12.643115
12.623746
12.604592
12.585645
12.5669
12.548357
12.530006
12.511842
12.493868
12.47607
12.458451
12.441006
12.423732
12.406628
12.389694
12.372927
12.35633
12.339902
12.323643
12.307555
12.29164
12.275899
12.260334
12.244946
12.229731
12.214689
12.199821
12.185125
12.170603
12.156253
12.142077
12.128074
12.114243
12.100585
12.087098
12.073783
12.060638
12.047662
12.034852
12.022243
12.009887
11.997726
11.98562
11.973784
11.962099
11.950609
11.939299
11.928171
11.917223
11.906454
11.895862
11.885446
11.875205
11.795494
11.77906
11.762825
11.74677
11.730877
11.715134
11.699545
11.684102
11.668796
11.653623
11.638584
11.623669
11.608872
11.594198
11.579633
11.565182
11.550838
11.5366
11.522468
11.508442
11.494519
11.480704
11.466994
11.453393
11.4399
11.426519
11.413252
11.400102
11.387068
11.374149
11.361346
11.348657
11.336085
11.32363
11.311292
11.299071
11.28697
11.274987
11.263123
11.251377
11.239749
11.228242
11.216852
11.205579
11.194452
11.183522
11.172745
11.161978
11.151425
11.140977
11.130676
11.120507
11.110474
11.100575
11.090809
11.081175
11.071672
11.0623
10.957879
10.944949
10.932151
10.919472
10.906894
10.894406
10.882011
10.869702
10.85747
10.845311
10.833226
10.821206
10.809247
10.797352
10.78551
10.773725
10.761992
10.750311
10.73868
10.727103
10.715576
10.704103
10.692685
10.681322
10.670018
10.658774
10.647595
10.636482
10.625437
10.614458
10.603545
10.592701
10.581926
10.57122
10.560586
10.550025
10.539536
10.529122
10.518782
10.508517
10.498328
10.488216
10.478179
10.46822
10.45836
10.448651
10.439059
10.42944
10.419989
10.410607
10.401329
10.392146
10.38306
10.374069
10.365174
10.356373
10.347667
10.339055
10.214364
10.204395
10.1945
10.184668
10.174884
10.165138
10.155431
10.145761
10.136113
10.126487
10.116886
10.107299
10.097723
10.088165
10.078611
10.069066
10.059529
10.049996
10.04047
10.030952
10.021441
10.01194
10.002451
9.9929743
9.983514
9.9740727
9.9646547
9.9552625
9.9458967
9.9365562
9.9272434
9.9179595
9.9087056
9.8994837
9.8902951
9.8811411
9.8720234
9.8629429
9.8539009
9.8448975
9.8359343
9.8270127
9.8181326
9.8092974
9.8005243
9.791861
9.7832857
9.7746549
9.7661537
9.7576893
9.749297
9.7409663
9.7327006
9.7244988
9.7163611
9.7082874
9.7002772
9.692331
9.5589948
9.5514575
9.5439792
9.5365248
9.5290856
9.5216479
9.5142029
9.5067531
9.4992946
9.4918156
9.4843144
9.4767956
9.4692504
9.4616741
9.4540755
9.4464413
9.4387783
9.4310837
9.4233567
9.4155984
9.4078124
9.3999964
9.3921554
9.3842902
9.3764033
9.3684976
9.3605767
9.3526453
9.3447062
9.33676
9.328806
9.3208472
9.3128851
9.3049214
9.2969581
9.288997
9.2810398
9.2730883
9.2651438
9.2572079
9.2492813
9.2413656
9.2334627
9.2255734
9.2177016
9.2098613
9.2020973
9.1943963
9.1866177
9.1789356
9.1712652
9.163639
9.1560479
9.1484952
9.1409803
9.1335036
9.1260653
9.1186653
9.1113043
8.9632951
8.9578903
8.9524996
8.9470898
8.9416546
8.9361818
8.9306634
8.9251022
8.9194958
8.9138319
8.9081096
8.902335
8.8964997
8.8905988
8.884643
8.8786189
8.8725341
8.8663864
8.8601755
8.8539028
8.8475728
8.841183
8.8347392
8.8282423
8.821695
8.8151008
8.8084632
8.8017877
8.7950773
8.7883323
8.7815525
8.7747413
8.7679006
8.7610323
8.7541387
8.7472217
8.7402835
8.733326
8.7263509
8.7193599
8.712354
8.7053352
8.6983056
8.6912665
8.6842227
8.6771852
8.6701959
8.6632485
8.6562067
8.649233
8.6422508
8.6352898
8.6283418
8.6214103
8.614495
8.6075965
8.6007153
8.5938514
8.5870059
8.4314514
8.4278482
8.4242255
8.4205793
8.4168776
8.4131164
8.4092851
8.4053761
8.4013926
8.3973339
8.3931871
8.3889522
8.3846363
8.3802319
8.3757336
8.371154
8.3664793
8.3617178
8.3568682
8.3519305
8.3469061
8.3418004
8.3366109
8.3313437
8.3260001
8.3205828
8.3150957
8.3095426
8.3039292
8.2982588
8.2925315
8.2867473
8.2809102
8.2750221
8.2690853
8.2631023
8.2570752
8.2510062
8.2448976
8.2387511
8.2325688
8.2263519
8.2201026
8.2138231
8.2075154
8.2011848
8.1948398
8.1885196
8.1822234
8.1758199
8.1694608
8.1630766
8.1566943
8.1503071
8.1439182
8.1375277
8.1311362
8.1247446
8.118353
8.1119628
7.9467589
7.9446759
7.9425382
7.9403457
7.9380675
7.9357015
7.9332384
7.9306713
7.9280035
7.9252361
7.9223558
7.9193628
7.9162659
7.913058
7.9097329
7.9063053
7.9027612
7.8991093
7.8953489
7.8914802
7.887505
7.8834292
7.8792502
7.8749745
7.8706035
7.8661403
7.8615887
7.8569528
7.8522386
7.8474495
7.8425855
7.8376467
7.8326375
7.82756
7.8224167
7.81721
7.8119424
7.8066163
7.8012339
7.7957973
7.7903085
7.7847691
7.7791814
7.7735478
7.7678707
7.7621557
7.7564095
7.7506683
7.7449361
7.7390871
7.7332623
7.7273989
7.7215217
7.7156246
7.7097109
7.7037807
7.697835
7.6918748
7.6859004
7.6799132
7.5078733
7.5070539
7.50615
7.5051657
7.504071
7.5028652
7.5015405
7.50009
7.4985176
7.496826
7.4950015
7.4930444
7.490965
7.4887567
7.4864125
7.483949
7.4813517
7.4786298
7.4757833
7.4728125
7.4697191
7.4665099
7.4631821
7.4597424
7.4561924
7.4525351
7.4487747
7.4449152
7.440963
7.4369218
7.4327911
7.428571
7.4242666
7.4198798
7.4154133
7.4108698
7.4062517
7.4015615
7.3968016
7.3919741
7.3870813
7.3821248
7.3771071
7.3720307
7.3668984
7.3617161
7.3564886
7.35125
7.3460072
7.3406411
7.3352818
7.3298732
7.3244376
7.3189699
7.3134732
7.3079479
7.302395
7.2968158
7.2912106
7.1090663
7.1092939
7.1094123
7.1094296
7.1093164
7.1090731
7.1086935
7.1081706
7.1075085
7.1067118
7.1057664
7.1046722
7.1034412
7.1020675
7.1005426
7.0988854
7.0970807
7.0951381
7.0930583
7.0908416
7.0884896
7.0860098
7.0833992
7.0806646
7.0778079
7.0748322
7.0717414
7.0685398
7.0652341
7.061828
7.058321
7.0547128
7.051009
7.0472117
7.0433234
7.0393471
7.0352852
7.0311403
7.0269149
7.0226112
7.0182314
7.0137774
7.0092518
7.0046571
6.9999965
6.9952758
6.9904989
6.9856972
6.9808801
6.9759353
6.9709825
6.9659719
6.9609233
6.9558327
6.9507028
6.9455343
6.9403284
6.9350863
6.9298087
6.7454736
6.746565
6.74753
6.7483744
6.7490728
6.7496261
6.7500294
6.7502754
6.7503681
6.7503147
6.7501
6.7497237
6.7491993
6.7485216
6.7476804
6.7466971
6.7455556
6.7442658
6.742829
6.7412455
6.7395167
6.737651
6.7356448
6.7335054
6.7312346
6.7288353
6.7263117
6.7236681
6.7209113
6.7180452
6.7150691
6.7119825
6.7087912
6.7054975
6.702104
6.6986135
6.6950288
6.6913522
6.6875864
6.6837337
6.6797963
6.6757763
6.6716762
6.6674987
6.6632472
6.6589276
6.6545425
6.6501216
6.6456754
6.6410989
6.636502
6.6318402
6.6271316
6.6223726
6.617566
6.6127127
6.6078138
6.6028707
6.412949
6.4147512
6.4164134
6.4179392
6.4193068
6.4205175
6.4215668
6.4224489
6.423168
6.4237292
6.424121
6.4243408
6.424404
6.4243061
6.424035
6.4236143
6.4230273
6.4222839
6.4213861
6.4203342
6.4191293
6.4177805
6.4162839
6.4146468
6.4128711
6.4109597
6.4089168
6.4067466
6.4044562
6.4020498
6.399526
6.3968843
6.3941309
6.391268
6.3882983
6.3852246
6.3820495
6.3787758
6.3754059
6.3719421
6.3683868
6.3647421
6.3610106
6.3571951
6.353299
6.3493283
6.3452847
6.3411962
6.3370738
6.3328199
6.3285349
6.3241795
6.3197699
6.3153033
6.3107823
6.3062077
6.3015809
6.2969034
6.1079442
6.1103292
6.1125631
6.1146481
6.1165656
6.1183171
6.1198984
6.1213051
6.1225412
6.1236105
6.1245033
6.1252188
6.12577
6.1261536
6.1263569
6.1264054
6.1262815
6.1259951
6.125549
6.1249431
6.1241784
6.1232646
6.1221975
6.1209844
6.1196273
6.118129
6.1164936
6.1147253
6.1128314
6.1108163
6.1086783
6.1064166
6.1040376
6.1015435
6.0989371
6.0962212
6.0933985
6.0904716
6.087443
6.0843151
6.0810903
6.0777707
6.074359
6.070858
6.0672711
6.0636044
6.0598589
6.056061
6.0522217
6.0482507
6.0442396
6.0401538
6.0360077
6.0317991
6.0275305
6.023203
6.0188178
5.8274111
5.8302713
5.8329719
5.835514
5.8378815
5.840076
5.8420938
5.8439316
5.8455932
5.8470812
5.8483877
5.8495131
5.8504685
5.8512506
5.8518501
5.8522891
5.852551
5.8526463
5.8525781
5.8523462
5.851951
5.8514033
5.850698
5.8498427
5.8488396
5.847691
5.8464012
5.8449741
5.8434173
5.8417356
5.8399269
5.8379898
5.8359311
5.8337531
5.8314585
5.8290502
5.8265307
5.8239028
5.8211688
5.8183313
5.8153926
5.812355
5.8092209
5.8059934
5.802676
5.7992746
5.7957895
5.792246
5.7886544
5.7849321
5.7811617
5.7773133
5.7733998
5.7694192
5.7653742
5.7612658
5.5687205
5.5719661
5.5750457
5.5779593
5.5806932
5.583249
5.5856234
5.5878141
5.5898244
5.5916563
5.5933034
5.5947668
5.5960561
5.597168
5.5980961
5.5988589
5.5994425
5.5998576
5.6001042
5.6001856
5.6001004
5.5998603
5.5994597
5.5989063
5.5982022
5.5973498
5.5963529
5.5952156
5.5939456
5.5925479
5.5910203
5.5893606
5.5875762
5.5856692
5.5836423
5.5814985
5.5792402
5.5768701
5.5743908
5.5718045
5.5691138
5.5663208
5.5634282
5.5604389
5.5573564
5.5541867
5.5509295
5.5476089
5.5442344
5.5407306
5.5371722
5.5335332
5.5298249
5.5260462
5.5221993
5.5182855
5.3295964
5.3331525
5.3365377
5.3397514
5.3427818
5.3456307
5.3482949
5.350773
5.3530679
5.3551811
5.3571073
5.3588486
5.3604127
5.3617968
5.3629968
5.364028
5.364879
5.3655595
5.3660697
5.3664139
5.3665875
5.3666058
5.3664617
5.3661628
5.3657113
5.3651094
5.3643609
5.3634695
5.3624433
5.3612878
5.3600001
5.3585777
5.3570281
5.3553534
5.3535566
5.3516403
5.3496071
5.3474596
5.3452003
5.3428316
5.3403558
5.3377754
5.3350929
5.3323111
5.3294337
5.3264665
5.3234088
5.3202837
5.3170996
5.3137881
5.3104163
5.306962
5.3034353
5.2998351
5.296164
5.099962
5.1040905
5.1080611
5.1118652
5.1154948
5.118949
5.1222178
5.1253028
5.128201
5.1309118
5.1334377
5.1357797
5.1379339
5.1399024
5.141692
5.1433002
5.1447243
5.1459773
5.1470499
5.1479509
5.1486807
5.149243
5.1496357
5.1498697
5.1499409
5.1498563
5.1496181
5.149228
5.1486899
5.1480073
5.1471883
5.1462391
5.1451563
5.1439367
5.1425881
5.1411128
5.1395136
5.1377931
5.1359539
5.1339985
5.1319295
5.1297492
5.12746
5.1250643
5.1225645
5.1199637
5.1172654
5.1144752
5.1115923
5.1086386
5.1056215
5.1024793
5.099272
5.0959808
5.0926145
5.0891725
5.0856573
4.8938879
4.8982197
4.9023896
4.9063897
4.910213
4.9138583
4.9173169
4.9205904
4.9236763
4.9265742
4.9292863
4.9318136
4.9341527
4.9363063
4.93828