/*--------------------------------*- C++ -*----------------------------------*\
| =========                 |                                                 |
| \\      /  F ield         | OpenFOAM: The Open Source CFD Toolbox           |
|  \\    /   O peration     | Version:  2.4.0                                 |
|   \\  /    A nd           | Web:      www.OpenFOAM.org                      |
|    \\/     M anipulation  |                                                 |
\*---------------------------------------------------------------------------*/
FoamFile
{
    version     2.0;
    format      ascii;
    class       volScalarField;
    location    "10000";
    object      p;
}
// * * * * * * * * * * * * * * * * * * * * * * * * * * * * * * * * * * * * * //

dimensions      [0 2 -2 0 0 0 0];

internalField   nonuniform List<scalar> 
9842
(
0.14117947
0.14264588
0.14413736
0.14565255
0.14719013
0.14874874
0.15032704
0.15192367
0.15353728
0.15516651
0.15681005
0.15846654
0.16013468
0.16181314
0.16350066
0.16519594
0.16689775
0.16860484
0.17031602
0.17203009
0.17374592
0.17546238
0.17717837
0.17889284
0.18060478
0.18231318
0.18401713
0.18571569
0.187408
0.18909322
0.19077057
0.19243925
0.19409855
0.19574781
0.19738635
0.19901357
0.20062886
0.2022317
0.20382153
0.20539795
0.20696048
0.2085087
0.21004224
0.21156076
0.21306393
0.21455149
0.21602317
0.21747877
0.21891806
0.2203409
0.22174714
0.22313665
0.22450934
0.22586511
0.22720391
0.22852571
0.22983049
0.23111823
0.23238897
0.23364271
0.14118006
0.14264644
0.1441379
0.14565307
0.14719064
0.14874922
0.1503275
0.1519241
0.15353769
0.1551669
0.15681041
0.15846687
0.16013498
0.16181342
0.16350091
0.16519617
0.16689795
0.16860501
0.17031616
0.17203021
0.17374601
0.17546244
0.17717841
0.17889285
0.18060477
0.18231315
0.18401707
0.1857156
0.18740789
0.18909309
0.19077041
0.19243907
0.19409835
0.19574758
0.19738611
0.1990133
0.20062858
0.20223139
0.20382121
0.2053976
0.20696012
0.20850832
0.21004184
0.21156034
0.2130635
0.21455104
0.21602271
0.21747829
0.21891758
0.2203404
0.22174663
0.22313613
0.2245088
0.22586456
0.22720336
0.22852515
0.22982992
0.23111765
0.23238838
0.23364212
0.13974065
0.14118066
0.14264702
0.14413846
0.14565361
0.14719115
0.14874971
0.15032797
0.15192454
0.1535381
0.15516729
0.15681077
0.15846721
0.16013529
0.1618137
0.16350117
0.16519639
0.16689815
0.16860518
0.1703163
0.17203032
0.1737461
0.1754625
0.17717844
0.17889286
0.18060474
0.1823131
0.18401699
0.1857155
0.18740776
0.18909294
0.19077023
0.19243887
0.19409812
0.19574734
0.19738584
0.19901301
0.20062826
0.20223105
0.20382085
0.20539723
0.20695973
0.20850791
0.21004142
0.2115599
0.21306304
0.21455057
0.21602222
0.21747779
0.21891706
0.22033987
0.22174609
0.22313558
0.22450824
0.22586398
0.22720277
0.22852455
0.22982931
0.23111704
0.23238775
0.23364149
0.13974126
0.14118125
0.14264759
0.14413901
0.14565414
0.14719166
0.14875019
0.15032842
0.15192497
0.15353851
0.15516767
0.15681112
0.15846753
0.16013559
0.16181398
0.16350141
0.16519661
0.16689834
0.16860535
0.17031644
0.17203043
0.17374618
0.17546255
0.17717847
0.17889286
0.18060472
0.18231305
0.18401691
0.1857154
0.18740764
0.18909278
0.19077006
0.19243867
0.1940979
0.19574709
0.19738557
0.19901272
0.20062796
0.20223073
0.20382051
0.20539686
0.20695934
0.2085075
0.210041
0.21155946
0.21306259
0.2145501
0.21602174
0.21747729
0.21891655
0.22033934
0.22174555
0.22313503
0.22450768
0.22586341
0.22720219
0.22852396
0.22982871
0.23111643
0.23238714
0.23364087
0.1383296
0.13974187
0.14118184
0.14264817
0.14413957
0.14565467
0.14719216
0.14875068
0.15032888
0.15192541
0.15353892
0.15516805
0.15681148
0.15846786
0.16013589
0.16181425
0.16350166
0.16519684
0.16689853
0.16860551
0.17031658
0.17203054
0.17374626
0.17546261
0.1771785
0.17889286
0.18060469
0.18231299
0.18401684
0.18571529
0.18740751
0.18909263
0.19076988
0.19243847
0.19409768
0.19574685
0.1973853
0.19901243
0.20062764
0.20223039
0.20382016
0.20539649
0.20695895
0.2085071
0.21004057
0.21155902
0.21306213
0.21454962
0.21602125
0.21747679
0.21891603
0.22033881
0.22174501
0.22313447
0.22450711
0.22586284
0.22720161
0.22852336
0.22982811
0.23111582
0.23238652
0.23364024
0.13833024
0.1397425
0.14118245
0.14264876
0.14414013
0.14565521
0.14719268
0.14875117
0.15032935
0.15192585
0.15353934
0.15516844
0.15681185
0.1584682
0.16013621
0.16181454
0.16350192
0.16519706
0.16689873
0.16860568
0.17031672
0.17203066
0.17374635
0.17546267
0.17717853
0.17889286
0.18060467
0.18231294
0.18401676
0.18571519
0.18740738
0.18909248
0.1907697
0.19243827
0.19409745
0.19574659
0.19738503
0.19901214
0.20062733
0.20223005
0.2038198
0.20539611
0.20695855
0.20850668
0.21004014
0.21155857
0.21306166
0.21454914
0.21602075
0.21747627
0.2189155
0.22033827
0.22174445
0.22313391
0.22450653
0.22586225
0.227201
0.22852275
0.22982749
0.23111519
0.23238588
0.23363959
0.1383309
0.13974314
0.14118307
0.14264936
0.14414071
0.14565577
0.14719322
0.14875168
0.15032984
0.15192631
0.15353977
0.15516885
0.15681222
0.15846855
0.16013653
0.16181483
0.16350218
0.1651973
0.16689894
0.16860586
0.17031687
0.17203077
0.17374644
0.17546273
0.17717856
0.17889287
0.18060464
0.18231289
0.18401668
0.18571508
0.18740725
0.18909232
0.19076951
0.19243806
0.19409721
0.19574634
0.19738475
0.19901183
0.200627
0.20222971
0.20381943
0.20539572
0.20695814
0.20850625
0.21003969
0.2115581
0.21306118
0.21454864
0.21602024
0.21747574
0.21891496
0.22033771
0.22174388
0.22313332
0.22450594
0.22586164
0.22720039
0.22852212
0.22982685
0.23111454
0.23238523
0.23363893
0.13694831
0.13833158
0.1397438
0.14118371
0.14264997
0.1441413
0.14565634
0.14719376
0.1487522
0.15033033
0.15192678
0.1535402
0.15516926
0.15681261
0.15846891
0.16013685
0.16181512
0.16350245
0.16519753
0.16689914
0.16860604
0.17031702
0.17203089
0.17374653
0.17546279
0.17717859
0.17889287
0.18060462
0.18231284
0.1840166
0.18571497
0.18740711
0.18909215
0.19076932
0.19243784
0.19409697
0.19574607
0.19738446
0.19901152
0.20062666
0.20222935
0.20381905
0.20539532
0.20695772
0.20850581
0.21003923
0.21155762
0.21306069
0.21454813
0.21601971
0.2174752
0.2189144
0.22033714
0.2217433
0.22313272
0.22450533
0.22586102
0.22719975
0.22852148
0.22982619
0.23111387
0.23238455
0.23363825
0.13694902
0.13833227
0.13974446
0.14118436
0.14265059
0.1441419
0.14565691
0.14719431
0.14875273
0.15033083
0.15192725
0.15354065
0.15516967
0.15681299
0.15846927
0.16013718
0.16181542
0.16350272
0.16519777
0.16689935
0.16860622
0.17031717
0.17203101
0.17374662
0.17546285
0.17717862
0.17889287
0.18060459
0.18231278
0.18401651
0.18571486
0.18740696
0.18909198
0.19076913
0.19243762
0.19409672
0.1957458
0.19738416
0.1990112
0.20062632
0.20222898
0.20381865
0.20539491
0.20695729
0.20850536
0.21003876
0.21155713
0.21306018
0.2145476
0.21601916
0.21747464
0.21891383
0.22033655
0.22174269
0.22313211
0.2245047
0.22586037
0.2271991
0.22852081
0.22982552
0.23111319
0.23238386
0.23363755
0.13694974
0.13833297
0.13974514
0.14118501
0.14265123
0.14414251
0.1456575
0.14719487
0.14875326
0.15033134
0.15192773
0.1535411
0.1551701
0.15681339
0.15846963
0.16013752
0.16181573
0.16350299
0.16519802
0.16689956
0.1686064
0.17031731
0.17203113
0.1737467
0.1754629
0.17717865
0.17889286
0.18060455
0.18231271
0.18401641
0.18571473
0.18740681
0.1890918
0.19076892
0.19243738
0.19409646
0.19574551
0.19738384
0.19901086
0.20062595
0.20222859
0.20381825
0.20539448
0.20695684
0.20850488
0.21003827
0.21155662
0.21305965
0.21454705
0.2160186
0.21747406
0.21891323
0.22033594
0.22174207
0.22313147
0.22450404
0.22585971
0.22719842
0.22852013
0.22982482
0.23111248
0.23238314
0.23363682
0.1355975
0.13695047
0.13833368
0.13974583
0.14118568
0.14265187
0.14414313
0.1456581
0.14719544
0.1487538
0.15033185
0.15192821
0.15354156
0.15517052
0.15681378
0.15846999
0.16013785
0.16181603
0.16350326
0.16519826
0.16689977
0.16860657
0.17031746
0.17203124
0.17374678
0.17546295
0.17717866
0.17889285
0.1806045
0.18231263
0.18401631
0.1857146
0.18740665
0.18909161
0.19076869
0.19243713
0.19409618
0.1957452
0.19738351
0.1990105
0.20062557
0.20222819
0.20381782
0.20539403
0.20695637
0.20850439
0.21003775
0.21155609
0.21305909
0.21454648
0.21601801
0.21747345
0.21891261
0.2203353
0.22174141
0.2231308
0.22450336
0.22585902
0.22719772
0.22851941
0.22982409
0.23111175
0.2323824
0.23363606
0.13559826
0.13695121
0.1383344
0.13974653
0.14118635
0.14265253
0.14414376
0.1456587
0.14719601
0.14875435
0.15033237
0.1519287
0.15354202
0.15517095
0.15681418
0.15847036
0.16013818
0.16181633
0.16350353
0.16519849
0.16689997
0.16860674
0.17031759
0.17203134
0.17374685
0.17546298
0.17717866
0.17889281
0.18060444
0.18231254
0.18401618
0.18571444
0.18740646
0.18909139
0.19076845
0.19243685
0.19409588
0.19574487
0.19738315
0.19901012
0.20062516
0.20222775
0.20381736
0.20539355
0.20695586
0.20850386
0.2100372
0.21155552
0.21305851
0.21454588
0.21601739
0.21747281
0.21891195
0.22033463
0.22174072
0.2231301
0.22450265
0.22585829
0.22719697
0.22851866
0.22982333
0.23111097
0.23238161
0.13427758
0.13559902
0.13695195
0.13833512
0.13974723
0.14118703
0.14265318
0.14414439
0.1456593
0.14719659
0.14875489
0.15033288
0.15192918
0.15354246
0.15517137
0.15681456
0.15847071
0.1601385
0.16181661
0.16350377
0.1651987
0.16690015
0.16860688
0.1703177
0.17203141
0.17374689
0.17546299
0.17717863
0.17889275
0.18060434
0.18231241
0.18401602
0.18571424
0.18740623
0.18909113
0.19076816
0.19243654
0.19409553
0.1957445
0.19738275
0.19900969
0.20062471
0.20222727
0.20381685
0.20539302
0.20695531
0.20850329
0.21003661
0.2115549
0.21305787
0.21454522
0.21601671
0.21747212
0.21891124
0.2203339
0.22173999
0.22312934
0.22450188
0.22585751
0.22719618
0.22851785
0.22982251
0.23111015
0.23238078
0.13427837
0.1355998
0.13695271
0.13833585
0.13974794
0.14118771
0.14265383
0.14414501
0.14565989
0.14719715
0.14875542
0.15033338
0.15192965
0.1535429
0.15517176
0.15681492
0.15847103
0.16013879
0.16181687
0.16350399
0.16519888
0.16690029
0.16860699
0.17031777
0.17203145
0.17374688
0.17546295
0.17717856
0.17889264
0.1806042
0.18231223
0.1840158
0.185714
0.18740595
0.18909082
0.19076781
0.19243616
0.19409513
0.19574406
0.19738229
0.1990092
0.20062419
0.20222673
0.20381628
0.20539242
0.20695469
0.20850264
0.21003594
0.21155421
0.21305716
0.21454449
0.21601597
0.21747136
0.21891046
0.22033311
0.22173917
0.22312852
0.22450104
0.22585665
0.22719532
0.22851698
0.22982163
0.23110925
0.13427917
0.13560058
0.13695346
0.13833658
0.13974864
0.14118839
0.14265448
0.14414562
0.14566047
0.14719769
0.14875593
0.15033385
0.15193009
0.1535433
0.15517213
0.15681525
0.15847132
0.16013904
0.16181707
0.16350416
0.16519901
0.16690038
0.16860704
0.17031778
0.17203142
0.17374682
0.17546284
0.17717841
0.17889246
0.18060398
0.18231197
0.18401551
0.18571367
0.18740558
0.18909042
0.19076738
0.19243569
0.19409463
0.19574353
0.19738173
0.1990086
0.20062357
0.20222608
0.20381561
0.20539172
0.20695396
0.2085019
0.21003517
0.21155342
0.21305635
0.21454366
0.21601512
0.21747049
0.21890957
0.22033221
0.22173826
0.22312758
0.2245001
0.2258557
0.22719435
0.228516
0.22982064
0.23110825
0.13427997
0.13560135
0.13695421
0.1383373
0.13974933
0.14118904
0.1426551
0.14414621
0.14566102
0.14719821
0.14875641
0.15033429
0.15193048
0.15354365
0.15517244
0.15681552
0.15847155
0.16013922
0.16181721
0.16350425
0.16519906
0.16690039
0.168607
0.1703177
0.17203129
0.17374665
0.17546263
0.17717816
0.17889216
0.18060364
0.18231159
0.18401509
0.18571321
0.18740509
0.18908989
0.19076681
0.19243509
0.19409399
0.19574286
0.19738103
0.19900787
0.20062281
0.20222529
0.20381479
0.20539088
0.20695309
0.208501
0.21003425
0.21155248
0.21305539
0.21454268
0.21601412
0.21746947
0.21890854
0.22033115
0.22173719
0.22312651
0.224499
0.22585459
0.22719323
0.22851487
0.22981951
0.13428077
0.13560212
0.13695494
0.138338
0.13974999
0.14118967
0.14265568
0.14414675
0.14566152
0.14719866
0.14875682
0.15033466
0.1519308
0.15354393
0.15517266
0.1568157
0.15847168
0.1601393
0.16181724
0.16350424
0.16519899
0.16690027
0.16860683
0.17031748
0.17203103
0.17374634
0.17546227
0.17717775
0.17889171
0.18060314
0.18231105
0.18401451
0.18571258
0.18740442
0.18908918
0.19076607
0.1924343
0.19409317
0.195742
0.19738013
0.19900695
0.20062185
0.2022243
0.20381377
0.20538983
0.20695202
0.2084999
0.21003313
0.21155133
0.21305422
0.21454149
0.21601291
0.21746824
0.2189073
0.2203299
0.22173592
0.22312522
0.22449771
0.22585329
0.22719192
0.22851355
0.22981817
0.13428155
0.13560286
0.13695564
0.13833866
0.13975061
0.14119024
0.14265621
0.14414723
0.14566195
0.14719904
0.14875715
0.15033493
0.15193102
0.15354409
0.15517277
0.15681575
0.15847167
0.16013924
0.16181713
0.16350406
0.16519876
0.16689999
0.16860649
0.17031708
0.17203058
0.17374583
0.17546171
0.17717714
0.17889104
0.18060243
0.18231029
0.18401369
0.18571172
0.18740351
0.18908822
0.19076507
0.19243326
0.19409209
0.19574088
0.19737897
0.19900575
0.20062062
0.20222303
0.20381248
0.2053885
0.20695066
0.20849852
0.21003172
0.21154991
0.21305277
0.21454002
0.21601142
0.21746673
0.21890577
0.22032836
0.22173437
0.22312366
0.22449613
0.2258517
0.22719032
0.22851195
0.1342823
0.13560356
0.1369563
0.13833927
0.13975117
0.14119075
0.14265666
0.14414762
0.14566228
0.14719931
0.14875735
0.15033507
0.1519311
0.15354411
0.15517272
0.15681563
0.15847149
0.16013899
0.16181681
0.16350368
0.16519832
0.16689947
0.16860591
0.17031644
0.17202987
0.17374506
0.17546088
0.17717625
0.17889009
0.18060142
0.18230922
0.18401257
0.18571054
0.18740228
0.18908694
0.19076374
0.19243189
0.19409067
0.19573942
0.19737747
0.1990042
0.20061903
0.20222142
0.20381082
0.20538682
0.20694895
0.20849678
0.21002995
0.21154811
0.21305095
0.21453818
0.21600956
0.21746486
0.21890388
0.22032645
0.22173245
0.22312173
0.2244942
0.22584976
0.22718838
0.134283
0.13560421
0.13695689
0.1383398
0.13975164
0.14119115
0.14265699
0.14414789
0.14566247
0.14719943
0.1487574
0.15033504
0.151931
0.15354392
0.15517247
0.1568153
0.15847108
0.1601385
0.16181624
0.16350303
0.16519759
0.16689867
0.16860503
0.17031549
0.17202884
0.17374395
0.1754597
0.177175
0.17888878
0.18060004
0.18230777
0.18401106
0.18570897
0.18740066
0.18908526
0.190762
0.19243009
0.19408882
0.19573752
0.19737552
0.19900222
0.20061701
0.20221935
0.20380872
0.20538468
0.20694678
0.20849458
0.21002772
0.21154586
0.21304867
0.21453588
0.21600724
0.21746253
0.21890153
0.22032409
0.22173008
0.22311935
0.22449181
0.22584737
0.22718598
0.13428365
0.13560479
0.1369574
0.13834023
0.13975199
0.14119142
0.14265718
0.14414799
0.14566249
0.14719936
0.14875724
0.1503348
0.15193066
0.1535435
0.15517195
0.15681469
0.15847037
0.1601377
0.16181535
0.16350205
0.16519652
0.16689751
0.16860378
0.17031415
0.17202742
0.17374244
0.17545811
0.17717333
0.17888703
0.1805982
0.18230587
0.18400908
0.18570693
0.18739854
0.18908308
0.19075975
0.19242779
0.19408646
0.19573511
0.19737306
0.1989997
0.20061444
0.20221674
0.20380607
0.20538199
0.20694406
0.20849183
0.21002494
0.21154305
0.21304584
0.21453303
0.21600437
0.21745964
0.21889863
0.22032118
0.22172716
0.22311642
0.22448888
0.22584444
0.22718305
0.13428421
0.13560527
0.13695779
0.13834053
0.1397522
0.14119153
0.14265719
0.1441479
0.1456623
0.14719907
0.14875684
0.15033429
0.15193004
0.15354277
0.15517111
0.15681374
0.15846932
0.16013654
0.16181408
0.16350067
0.16519503
0.16689592
0.16860209
0.17031235
0.17202552
0.17374045
0.17545603
0.17717115
0.17888476
0.18059585
0.18230342
0.18400655
0.18570432
0.18739586
0.18908032
0.19075692
0.19242489
0.1940835
0.19573208
0.19736998
0.19899657
0.20061126
0.20221351
0.2038028
0.20537868
0.2069407
0.20848844
0.21002152
0.2115396
0.21304237
0.21452954
0.21600086
0.21745611
0.21889509
0.22031763
0.2217236
0.22311286
0.22448532
0.22584088
0.22717949
0.13428466
0.13560562
0.13695804
0.13834067
0.13975223
0.14119145
0.14265699
0.14414757
0.14566185
0.14719849
0.14875614
0.15033347
0.15192909
0.15354169
0.15516991
0.15681241
0.15846786
0.16013495
0.16181237
0.16349884
0.16519308
0.16689384
0.1685999
0.17031004
0.1720231
0.17373792
0.17545338
0.17716839
0.1788819
0.18059289
0.18230037
0.1840034
0.18570108
0.18739253
0.18907691
0.19075343
0.19242133
0.19407986
0.19572838
0.19736621
0.19899274
0.20060738
0.20220958
0.20379882
0.20537465
0.20693663
0.20848433
0.21001739
0.21153544
0.21303818
0.21452532
0.21599663
0.21745187
0.21889084
0.22031337
0.22171933
0.22310859
0.22448105
0.22583661
0.22717524
0.13428499
0.13560583
0.13695812
0.13834063
0.13975205
0.14119113
0.14265653
0.14414698
0.14566111
0.14719761
0.14875511
0.15033229
0.15192777
0.15354022
0.15516829
0.15681065
0.15846595
0.1601329
0.16181017
0.1634965
0.1651906
0.16689122
0.16859714
0.17030715
0.17202008
0.17373477
0.17545011
0.177165
0.17887839
0.18058927
0.18229664
0.18399957
0.18569714
0.1873885
0.18907279
0.19074922
0.19241703
0.19407549
0.19572393
0.19736169
0.19898815
0.20060273
0.20220488
0.20379406
0.20536985
0.20693179
0.20847945
0.21001247
0.21153049
0.21303321
0.21452033
0.21599162
0.21744684
0.2188858
0.22030833
0.22171429
0.22310355
0.22447601
0.22583158
0.22717022
0.13428517
0.13560587
0.13695801
0.13834036
0.13975163
0.14119055
0.14265579
0.14414607
0.14566004
0.14719638
0.14875371
0.15033072
0.15192603
0.15353832
0.15516622
0.15680841
0.15846354
0.16013033
0.16180744
0.1634936
0.16518754
0.16688801
0.16859377
0.17030364
0.17201642
0.17373097
0.17544616
0.17716093
0.17887418
0.18058493
0.18229218
0.183995
0.18569246
0.18738371
0.18906789
0.19074423
0.19241195
0.19407032
0.19571868
0.19735637
0.19898276
0.20059727
0.20219935
0.20378848
0.20536422
0.20692611
0.20847373
0.21000672
0.21152471
0.2130274
0.2145145
0.21598577
0.21744098
0.21887994
0.22030246
0.22170842
0.22309769
0.22447016
0.22582574
0.22716439
0.13428519
0.13560571
0.13695769
0.13833986
0.13975095
0.14118968
0.14265474
0.14414484
0.14565861
0.14719476
0.14875191
0.15032872
0.15192385
0.15353594
0.15516365
0.15680565
0.1584606
0.1601272
0.16180413
0.16349011
0.16518387
0.16688417
0.16858976
0.17029946
0.17201207
0.17372647
0.17544151
0.17715612
0.17886924
0.18057985
0.18228697
0.18398966
0.18568699
0.18737812
0.1890622
0.19073843
0.19240605
0.19406433
0.1957126
0.1973502
0.19897652
0.20059095
0.20219298
0.20378205
0.20535773
0.20691957
0.20846715
0.2100001
0.21151806
0.21302072
0.2145078
0.21597906
0.21743426
0.21887321
0.22029573
0.2217017
0.22309097
0.22446345
0.22581905
0.13428501
0.13560534
0.13695712
0.1383391
0.13974998
0.14118851
0.14265335
0.14414324
0.1456568
0.14719274
0.14874967
0.15032627
0.15192118
0.15353306
0.15516056
0.15680235
0.15845709
0.16012349
0.16180021
0.163486
0.16517956
0.16687966
0.16858507
0.17029458
0.17200702
0.17372124
0.17543612
0.17715057
0.17886352
0.18057399
0.18228096
0.18398351
0.18568071
0.18737171
0.18905567
0.19073179
0.1923993
0.19405747
0.19570565
0.19734316
0.1989694
0.20058376
0.20218571
0.20377472
0.20535034
0.20691214
0.20845968
0.20999259
0.21151051
0.21301315
0.21450021
0.21597146
0.21742665
0.21886559
0.22028811
0.22169409
0.22308337
0.22445587
0.22581149
0.13428463
0.13560474
0.1369563
0.13833805
0.1397487
0.141187
0.14265161
0.14414126
0.14565459
0.14719028
0.14874698
0.15032334
0.15191801
0.15352966
0.15515692
0.15679848
0.158453
0.16011916
0.16179567
0.16348123
0.16517458
0.16687448
0.16857968
0.17028899
0.17200123
0.17371526
0.17542996
0.17714423
0.17885702
0.18056731
0.18227413
0.18397653
0.18567359
0.18736446
0.18904828
0.19072428
0.19239167
0.19404974
0.19569782
0.19733523
0.19896138
0.20057566
0.20217755
0.20376649
0.20534205
0.20690379
0.20845129
0.20998416
0.21150205
0.21300467
0.21449171
0.21596294
0.21741812
0.21885706
0.22027959
0.22168557
0.22307487
0.22444739
0.22580304
0.13428403
0.1356039
0.13695521
0.13833671
0.1397471
0.14118514
0.14264949
0.14413888
0.14565195
0.14718738
0.14874381
0.15031992
0.15191433
0.15352572
0.15515272
0.15679403
0.15844829
0.16011421
0.16179048
0.1634758
0.16516892
0.16686859
0.16857356
0.17028266
0.17199469
0.17370852
0.17542301
0.1771371
0.1788497
0.18055982
0.18226647
0.18396871
0.18566561
0.18735633
0.18904002
0.19071589
0.19238316
0.19404111
0.19568908
0.1973264
0.19895245
0.20056665
0.20216846
0.20375733
0.20533283
0.20689452
0.20844197
0.2099748
0.21149266
0.21299525
0.21448227
0.21595349
0.21740867
0.21884761
0.22027015
0.22167614
0.22306546
0.224438
0.13428319
0.1356028
0.13695383
0.13833505
0.13974516
0.14118291
0.14264698
0.14413608
0.14564887
0.14718401
0.14874016
0.15031598
0.15191011
0.15352122
0.15514795
0.15678898
0.15844297
0.16010862
0.16178462
0.16346969
0.16516256
0.16686198
0.16856671
0.17027558
0.17198738
0.17370099
0.17541528
0.17712915
0.17884156
0.18055149
0.18225796
0.18396002
0.18565677
0.18734733
0.18903087
0.1907066
0.19237374
0.19403157
0.19567943
0.19731664
0.1989426
0.20055671
0.20215844
0.20374724
0.20532268
0.20688431
0.20843171
0.2099645
0.21148233
0.2129849
0.2144719
0.21594311
0.21739828
0.21883723
0.22025977
0.22166578
0.22305512
0.22442769
0.13428212
0.13560143
0.13695216
0.13833307
0.13974287
0.14118031
0.14264407
0.14413286
0.14564533
0.14718017
0.14873601
0.15031152
0.15190534
0.15351615
0.15514258
0.15678331
0.15843701
0.16010238
0.16177809
0.16346289
0.16515548
0.16685464
0.16855912
0.17026773
0.17197929
0.17369267
0.17540673
0.17712039
0.17883259
0.18054232
0.18224859
0.18395047
0.18564704
0.18733744
0.18902083
0.19069641
0.19236341
0.19402111
0.19566885
0.19730595
0.19893181
0.20054583
0.20214747
0.2037362
0.20531157
0.20687314
0.20842049
0.20995325
0.21147105
0.21297359
0.21446057
0.21593177
0.21738695
0.2188259
0.22024845
0.22165449
0.22304385
0.13428079
0.13559977
0.13695017
0.13833075
0.13974022
0.14117733
0.14264075
0.1441292
0.14564134
0.14717584
0.14873134
0.15030652
0.15190002
0.15351049
0.1551366
0.15677702
0.15843041
0.16009546
0.16177088
0.16345538
0.16514768
0.16684656
0.16855076
0.17025911
0.17197042
0.17368354
0.17539736
0.17711079
0.17882276
0.18053228
0.18223835
0.18394004
0.18563643
0.18732665
0.18900987
0.1906853
0.19235216
0.19400972
0.19565733
0.19729432
0.19892007
0.20053399
0.20213555
0.2037242
0.2052995
0.20686102
0.20840832
0.20994103
0.2114588
0.21296131
0.21444829
0.21591948
0.21737465
0.21881361
0.22023618
0.22164224
0.22303163
0.13427919
0.13559783
0.13694787
0.13832809
0.1397372
0.14117395
0.142637
0.1441251
0.14563687
0.14717101
0.14872616
0.15030098
0.15189412
0.15350425
0.15513001
0.15677009
0.15842314
0.16008787
0.16176297
0.16344715
0.16513915
0.16683772
0.16854164
0.1702497
0.17196074
0.17367359
0.17538716
0.17710034
0.17881208
0.18052138
0.18222724
0.18392872
0.18562491
0.18731495
0.188998
0.19067326
0.19233997
0.19399739
0.19564487
0.19728174
0.19890738
0.2005212
0.20212267
0.20371124
0.20528647
0.20684792
0.20839517
0.20992784
0.21144557
0.21294807
0.21443503
0.21590621
0.21736139
0.21880036
0.22022295
0.22162903
0.22301846
0.13299171
0.13427733
0.13559558
0.13694524
0.13832508
0.1397338
0.14117016
0.14263283
0.14412054
0.14563192
0.14716568
0.14872044
0.15029489
0.15188765
0.15349741
0.1551228
0.15676252
0.15841522
0.1600796
0.16175435
0.1634382
0.16512987
0.16682813
0.16853174
0.1702395
0.17195024
0.17366282
0.17537612
0.17708904
0.17880054
0.1805096
0.18221523
0.18391649
0.18561248
0.18730233
0.18898519
0.19066029
0.19232683
0.19398411
0.19563145
0.19726819
0.19889371
0.20050743
0.2021088
0.20369729
0.20527245
0.20683384
0.20838104
0.20991366
0.21143137
0.21293384
0.21442078
0.21589196
0.21734715
0.21878613
0.22020874
0.22161485
0.22300432
0.13298997
0.13427518
0.13559303
0.13694228
0.1383217
0.13973001
0.14116596
0.14262821
0.14411551
0.14562648
0.14715983
0.14871418
0.15028823
0.15188059
0.15348996
0.15511496
0.1567543
0.15840662
0.16007063
0.16174502
0.16342851
0.16511984
0.16681776
0.16852104
0.17022849
0.17193893
0.17365121
0.17536423
0.17707688
0.17878811
0.18049692
0.18220231
0.18390335
0.18559913
0.18728877
0.18897145
0.19064636
0.19231274
0.19396986
0.19561706
0.19725366
0.19887906
0.20049267
0.20209395
0.20368235
0.20525743
0.20681876
0.20836591
0.20989849
0.21141616
0.21291861
0.21440554
0.21587672
0.21733191
0.21877091
0.22019355
0.22159969
0.2229892
0.13298796
0.13427275
0.13559016
0.13693898
0.13831796
0.13972583
0.14116133
0.14262315
0.14411001
0.14562054
0.14715345
0.14870738
0.15028099
0.15187294
0.15348188
0.15510648
0.15674541
0.15839733
0.16006095
0.16173496
0.16341808
0.16510904
0.16680661
0.16850955
0.17021667
0.17192678
0.17363876
0.17535147
0.17706384
0.1787748
0.18048334
0.18218848
0.18388929
0.18558484
0.18727427
0.18895674
0.19063147
0.19229767
0.19395463
0.19560168
0.19723815
0.19886342
0.20047692
0.2020781
0.20366641
0.20524141
0.20680267
0.20834976
0.2098823
0.21139994
0.21290237
0.21438929
0.21586047
0.21731567
0.21875469
0.22017735
0.22158353
0.22297308
0.13173521
0.13298569
0.13427001
0.13558697
0.13693532
0.13831384
0.13972124
0.14115628
0.14261763
0.14410402
0.1456141
0.14714655
0.14870002
0.15027318
0.15186468
0.15347318
0.15509734
0.15673584
0.15838735
0.16005055
0.16172416
0.16340689
0.16509747
0.16679467
0.16849725
0.17020401
0.17191379
0.17362544
0.17533784
0.17704991
0.17876058
0.18046885
0.18217373
0.18387428
0.1855696
0.18725881
0.18894107
0.1906156
0.19228162
0.19393841
0.1955853
0.19722163
0.19884677
0.20046015
0.20206122
0.20364945
0.20522437
0.20678556
0.20833259
0.20986509
0.2113827
0.2128851
0.21437202
0.21584319
0.2172984
0.21873744
0.22016014
0.22156636
0.22295596
0.13173314
0.13298313
0.13426698
0.13558344
0.1369313
0.13830933
0.13971624
0.14115079
0.14261164
0.14409754
0.14560713
0.1471391
0.14869208
0.15026477
0.1518558
0.15346384
0.15508754
0.15672559
0.15837665
0.16003943
0.16171261
0.16339493
0.16508511
0.16678192
0.16848412
0.17019052
0.17189994
0.17361125
0.17532332
0.17703507
0.17874544
0.18045342
0.18215803
0.18385832
0.18555339
0.18724237
0.18892442
0.19059874
0.19226457
0.19392119
0.19556791
0.19720409
0.1988291
0.20044235
0.20204332
0.20363144
0.20520628
0.2067674
0.20831438
0.20984684
0.21136441
0.2128668
0.2143537
0.21582488
0.2172801
0.21871916
0.22014189
0.22154815
0.22293781
0.13051633
0.13173081
0.13298029
0.13426363
0.13557957
0.13692692
0.13830443
0.13971082
0.14114484
0.14260518
0.14409056
0.14559964
0.14713109
0.14868357
0.15025576
0.15184629
0.15345384
0.15507707
0.15671465
0.15836524
0.16002757
0.16170031
0.16338219
0.16507195
0.16676835
0.16847015
0.17017616
0.17188522
0.17359617
0.1753079
0.17701932
0.17872937
0.18043705
0.18214137
0.1838414
0.18553621
0.18722494
0.18890676
0.19058087
0.1922465
0.19390294
0.19554949
0.19718551
0.19881038
0.20042351
0.20202436
0.20361239
0.20518714
0.20674819
0.20829511
0.20982752
0.21134506
0.21284743
0.21433432
0.21580551
0.21726074
0.21869983
0.22012259
0.2215289
0.22291862
0.13051426
0.13172821
0.13297716
0.13425995
0.13557536
0.13692216
0.13829912
0.13970496
0.14113844
0.14259823
0.14408307
0.1455916
0.14712252
0.14867447
0.15024613
0.15183615
0.15344319
0.15506591
0.15670299
0.1583531
0.16001495
0.16168723
0.16336866
0.16505798
0.16675394
0.16845533
0.17016094
0.17186961
0.17358018
0.17529155
0.17700263
0.17871236
0.18041972
0.18212374
0.18382348
0.18551803
0.18720651
0.18888809
0.19056198
0.1922274
0.19388365
0.19553002
0.19716588
0.19879061
0.2004036
0.20200434
0.20359227
0.20516693
0.2067279
0.20827477
0.20980713
0.21132464
0.21282698
0.21431387
0.21578506
0.21724031
0.21867943
0.22010223
0.22150859
0.22289837
0.13051195
0.13172534
0.13297373
0.13425595
0.13557078
0.13691701
0.1382934
0.13969867
0.14113157
0.14259079
0.14407506
0.14558302
0.14711338
0.14866477
0.15023588
0.15182535
0.15343186
0.15505405
0.15669061
0.15834022
0.16000157
0.16167336
0.16335432
0.16504317
0.16673869
0.16843964
0.17014484
0.1718531
0.17356328
0.17527428
0.176985
0.17869438
0.18040142
0.18210513
0.18380457
0.18549884
0.18718705
0.18886839
0.19054205
0.19220726
0.1938633
0.19550949
0.19714518
0.19876975
0.20038262
0.20198323
0.20357105
0.20514563
0.20670652
0.20825333
0.20978564
0.21130311
0.21280544
0.21429232
0.21576351
0.21721878
0.21865793
0.22008078
0.22148719
0.13050938
0.13172218
0.13296998
0.13425161
0.13556584
0.13691147
0.13828725
0.13969192
0.14112422
0.14258284
0.14406651
0.14557388
0.14710365
0.14865446
0.15022499
0.15181389
0.15341984
0.15504148
0.1566775
0.15832658
0.15998741
0.16165869
0.16333915
0.16502753
0.16672258
0.16842308
0.17012783
0.17183567
0.17354545
0.17525605
0.1769664
0.17867542
0.18038212
0.18208551
0.18378464
0.18547861
0.18716656
0.18884763
0.19052105
0.19218604
0.19384187
0.19548788
0.1971234
0.19874781
0.20036053
0.20196102
0.20354873
0.20512321
0.20668403
0.20823077
0.20976303
0.21128047
0.21278278
0.21426966
0.21574086
0.21719615
0.21863533
0.22005822
0.2214647
0.13050654
0.13171873
0.13296591
0.13424691
0.13556052
0.13690552
0.13828067
0.13968471
0.14111637
0.14257437
0.14405742
0.14556417
0.14709332
0.14864352
0.15021345
0.15180176
0.15340712
0.15502818
0.15666364
0.15831216
0.15997245
0.1616432
0.16332315
0.16501102
0.16670559
0.16840561
0.17010992
0.17181731
0.17352667
0.17523686
0.17694682
0.17865547
0.18036181
0.18206486
0.18376368
0.18545735
0.18714501
0.18882581
0.19049898
0.19216374
0.19381936
0.19546516
0.1971005
0.19872475
0.20033733
0.20193769
0.20352528
0.20509967
0.20666041
0.20820708
0.20973929
0.2112567
0.21275899
0.21424586
0.21571707
0.21717238
0.2186116
0.22003454
0.13050343
0.13171498
0.13296151
0.13424186
0.13555481
0.13689915
0.13827364
0.13967702
0.14110803
0.14256537
0.14404777
0.14555387
0.14708238
0.14863195
0.15020125
0.15178894
0.15339369
0.15501415
0.15664902
0.15829697
0.15995669
0.16162689
0.1633063
0.16499365
0.16668771
0.16838724
0.17009107
0.171798
0.17350692
0.17521669
0.17692624
0.1786345
0.18034048
0.18204317
0.18374166
0.18543501
0.18712238
0.18880291
0.19047581
0.19214033
0.19379573
0.19544133
0.19707648
0.19870056
0.20031298
0.20191321
0.20350069
0.20507497
0.20663563
0.20818223
0.2097144
0.21123177
0.21273404
0.2142209
0.21569212
0.21714746
0.21858672
0.22000971
0.13050004
0.13171092
0.13295677
0.13423644
0.13554871
0.13689236
0.13826616
0.13966885
0.14109918
0.14255584
0.14403755
0.14554298
0.14707082
0.14861973
0.15018838
0.15177542
0.15337953
0.15499937
0.15663363
0.15828097
0.15994011
0.16160973
0.16328858
0.16497539
0.16666892