/*--------------------------------*- C++ -*----------------------------------*\
| =========                 |                                                 |
| \\      /  F ield         | OpenFOAM: The Open Source CFD Toolbox           |
|  \\    /   O peration     | Version:  2.4.0                                 |
|   \\  /    A nd           | Web:      www.OpenFOAM.org                      |
|    \\/     M anipulation  |                                                 |
\*---------------------------------------------------------------------------*/
FoamFile
{
    version     2.0;
    format      ascii;
    class       volVectorField;
    location    "10000";
    object      U;
}
// * * * * * * * * * * * * * * * * * * * * * * * * * * * * * * * * * * * * * //

dimensions      [0 1 -1 0 0 0 0];

internalField   nonuniform List<vector> 
9842
(
(-0.0040410341 3.1402023e-07 0)
(-0.0040489489 3.048454e-07 0)
(-0.0040543722 2.9524209e-07 0)
(-0.0040573424 2.8495091e-07 0)
(-0.004057878 2.7422143e-07 0)
(-0.004055997 2.6309151e-07 0)
(-0.0040517386 2.5156947e-07 0)
(-0.0040451457 2.3974469e-07 0)
(-0.004036264 2.2763108e-07 0)
(-0.0040251408 2.1526253e-07 0)
(-0.0040118251 2.0263741e-07 0)
(-0.0039963681 1.8975497e-07 0)
(-0.0039788221 1.7668591e-07 0)
(-0.003959241 1.6344955e-07 0)
(-0.0039376805 1.5010278e-07 0)
(-0.0039141973 1.3665279e-07 0)
(-0.0038888502 1.231739e-07 0)
(-0.0038616986 1.0956247e-07 3.3049728e-24)
(-0.0038328047 9.5956068e-08 -3.3049745e-24)
(-0.0038022299 8.2333493e-08 -3.3718244e-24)
(-0.0037700384 6.8743151e-08 7.4004669e-17)
(-0.0037362928 5.5249302e-08 7.4714755e-17)
(-0.0037010574 4.1879157e-08 3.472226e-24)
(-0.0036644008 2.8533326e-08 -3.4722283e-24)
(-0.0036263881 1.527337e-08 0)
(-0.0035870842 2.1526906e-09 1.7861381e-24)
(-0.0035465541 -1.0824888e-08 1.6589811e-26)
(-0.0035048614 -2.3563768e-08 -1.802732e-24)
(-0.0034620698 -3.6185265e-08 0)
(-0.0034182426 -4.8639117e-08 0)
(-0.0033734413 -6.0855699e-08 0)
(-0.0033277273 -7.2801195e-08 9.423379e-25)
(-0.0032811616 -8.4467343e-08 -9.4233924e-25)
(-0.0032338019 -9.5846897e-08 0)
(-0.0031857069 -1.0730734e-07 0)
(-0.0031369308 -1.1816286e-07 0)
(-0.0030875302 -1.2889234e-07 4.9106862e-25)
(-0.0030375581 -1.3936072e-07 -4.9106898e-25)
(-0.0029870817 -1.4939612e-07 0)
(-0.0029361642 -1.5926613e-07 0)
(-0.0028848419 -1.6878811e-07 0)
(-0.0028331561 -1.7808058e-07 0)
(-0.0027811706 -1.8702915e-07 -2.0556733e-24)
(-0.0027289317 -1.9567186e-07 2.0556769e-24)
(-0.0026764886 -2.0398666e-07 0)
(-0.0026238883 -2.1196192e-07 4.1988509e-24)
(-0.0025711753 -2.1972593e-07 -4.1988544e-24)
(-0.0025183926 -2.2730785e-07 4.2556367e-24)
(-0.0024655825 -2.3437636e-07 -4.2556423e-24)
(-0.0024127831 -2.4120141e-07 -4.3111458e-24)
(-0.0023600342 -2.4779439e-07 4.3111514e-24)
(-0.0023073699 -2.5407088e-07 4.3653573e-24)
(-0.0022548261 -2.599684e-07 2.6607372e-26)
(-0.002202439 -2.6574289e-07 -4.3919758e-24)
(-0.0021502403 -2.7104587e-07 0)
(-0.0020982629 -2.7616801e-07 0)
(-0.0020465366 -2.8113291e-07 0)
(-0.0019950933 -2.8588276e-07 9.8408825e-17)
(-0.0019439618 -2.9011962e-07 4.6864334e-20)
(-0.0018931698 -2.9425032e-07 -9.9531087e-17)
(-0.012152132 2.8679708e-07 0)
(-0.01217432 2.1639561e-07 8.612553e-24)
(-0.012189046 1.4711143e-07 -8.6125502e-24)
(-0.012196428 7.7862591e-08 8.7945216e-24)
(-0.012196521 9.140089e-09 -8.7945217e-24)
(-0.012189379 -5.8796445e-08 8.9817087e-24)
(-0.012175124 -1.256238e-07 -8.9817115e-24)
(-0.012153885 -1.9124231e-07 0)
(-0.012125801 -2.5560947e-07 0)
(-0.012091013 -3.1857356e-07 9.3691581e-24)
(-0.012049672 -3.8001989e-07 -9.369164e-24)
(-0.01200193 -4.4018898e-07 9.5681309e-24)
(-0.011947947 -4.9900786e-07 1.0050256e-25)
(-0.011887883 -5.5624635e-07 -9.6686651e-24)
(-0.011821907 -6.118558e-07 -4.9356836e-24)
(-0.01175019 -6.6601867e-07 4.9356997e-24)
(-0.011672909 -7.1847487e-07 0)
(-0.011590241 -7.6923853e-07 5.0892496e-24)
(-0.011502374 -8.181922e-07 5.1432999e-26)
(-0.011409492 -8.6544749e-07 -5.1407142e-24)
(-0.011311787 -9.1103835e-07 0)
(-0.011209448 -9.5478992e-07 0)
(-0.011102667 -9.9673395e-07 0)
(-0.010991649 -1.0368638e-06 0)
(-0.010876589 -1.0750426e-06 2.7248618e-24)
(-0.010757683 -1.111386e-06 -5.4753653e-24)
(-0.010635122 -1.1458918e-06 -2.5546546e-26)
(-0.0105091 -1.1787193e-06 -2.545934e-26)
(-0.010379805 -1.2098008e-06 5.6284305e-24)
(-0.010247428 -1.2392417e-06 -2.8269101e-24)
(-0.010112151 -1.2670292e-06 1.4386469e-24)
(-0.0099741603 -1.2926708e-06 -1.4386536e-24)
(-0.0098336353 -1.3165781e-06 7.3178817e-25)
(-0.0096907497 -1.3386644e-06 -7.3179225e-25)
(-0.0095456793 -1.3601258e-06 0)
(-0.0093985863 -1.3789532e-06 -3.7509419e-25)
(-0.0092496391 -1.3967721e-06 -3.8113719e-25)
(-0.0090989971 -1.4132814e-06 7.5623738e-25)
(-0.0089468597 -1.4270982e-06 -1.5363561e-24)
(-0.0087934157 -1.4399931e-06 1.5363652e-24)
(-0.0086387757 -1.4518237e-06 -3.1196755e-24)
(-0.0084830614 -1.4621386e-06 3.1196914e-24)
(-0.0083264631 -1.4707131e-06 3.1657692e-24)
(-0.0081691199 -1.4780621e-06 2.2689484e-26)
(-0.0080111785 -1.4838031e-06 -3.1884945e-24)
(-0.0078527788 -1.4882048e-06 -6.4663845e-24)
(-0.0076940543 -1.4916272e-06 6.4664201e-24)
(-0.0075351333 -1.4941434e-06 6.5538972e-24)
(-0.0073761421 -1.495074e-06 -1.3150855e-23)
(-0.0072171938 -1.4950162e-06 -4.2487881e-26)
(-0.0070584084 -1.4939569e-06 -4.1987713e-26)
(-0.0068998874 -1.4917263e-06 6.6815115e-24)
(-0.0067417384 -1.4882512e-06 0)
(-0.0065840695 -1.4840479e-06 0)
(-0.0064269745 -1.4786897e-06 0)
(-0.0062705533 -1.472754e-06 0)
(-0.0061148945 -1.4659786e-06 0)
(-0.0059600932 -1.4585675e-06 0)
(-0.0058062354 -1.4496737e-06 0)
(-0.0056534046 -1.4403406e-06 -1.4073692e-23)
(-0.020370053 9.3570014e-07 8.6191075e-24)
(-0.02041774 7.2342133e-07 -8.7975947e-24)
(-0.020452736 5.1251957e-07 1.7686856e-23)
(-0.020475238 3.0510117e-07 -8.8892659e-24)
(-0.020485446 9.8921771e-08 -9.0770822e-24)
(-0.020483452 -1.0561502e-07 9.0770826e-24)
(-0.02046935 -3.0757525e-07 0)
(-0.020443344 -5.0600587e-07 -9.3686902e-24)
(-0.020405655 -7.0053612e-07 9.3686985e-24)
(-0.020356518 -8.9100987e-07 0)
(-0.020296173 -1.0774896e-06 0)
(-0.020224871 -1.2596385e-06 0)
(-0.020142871 -1.4373664e-06 0)
(-0.02005044 -1.6104849e-06 9.9793274e-24)
(-0.019947851 -1.7790844e-06 -2.0063044e-23)
(-0.019835385 -1.9429102e-06 1.0083733e-23)
(-0.01971333 -2.1018621e-06 -1.0293934e-23)
(-0.019581982 -2.2557535e-06 1.0293975e-23)
(-0.019441643 -2.4044007e-06 0)
(-0.019292624 -2.5478487e-06 0)
(-0.019135236 -2.6861787e-06 0)
(-0.0189698 -2.8190115e-06 0)
(-0.018796632 -2.9464714e-06 0)
(-0.018616056 -3.0681508e-06 0)
(-0.018428413 -3.1844008e-06 5.5719307e-24)
(-0.018234032 -3.2952888e-06 -5.5719734e-24)
(-0.018033236 -3.4005552e-06 -2.8389566e-24)
(-0.017826351 -3.5003453e-06 -2.6367894e-26)
(-0.017613696 -3.5948872e-06 2.8653706e-24)
(-0.01739559 -3.6841541e-06 -2.9178459e-24)
(-0.017172347 -3.7681574e-06 -2.6059042e-26)
(-0.016944277 -3.8472474e-06 2.943957e-24)
(-0.016711689 -3.9207308e-06 0)
(-0.016474882 -3.9889234e-06 -7.5534366e-25)
(-0.016234147 -4.0520032e-06 7.5535088e-25)
(-0.015989779 -4.1119491e-06 0)
(-0.015742049 -4.1656467e-06 -3.8717276e-25)
(-0.015491237 -4.2154082e-06 3.8717661e-25)
(-0.015237611 -4.2604724e-06 0)
(-0.014981502 -4.2990858e-06 -1.585849e-24)
(-0.014723227 -4.3342489e-06 1.5858657e-24)
(-0.014462972 -4.366037e-06 3.2202028e-24)
(-0.014200938 -4.3934407e-06 -3.2202337e-24)
(-0.013937445 -4.4160116e-06 0)
(-0.013672723 -4.4348007e-06 0)
(-0.013407019 -4.4491909e-06 0)
(-0.013140566 -4.4596241e-06 -6.6749054e-24)
(-0.012873586 -4.466948e-06 6.6749731e-24)
(-0.012606295 -4.4711141e-06 0)
(-0.012338903 -4.4709956e-06 0)
(-0.0120716 -4.4679893e-06 0)
(-0.011804584 -4.4618941e-06 0)
(-0.011538028 -4.4527995e-06 0)
(-0.01127211 -4.4402104e-06 0)
(-0.011007011 -4.4251397e-06 0)
(-0.010742888 -4.4070277e-06 0)
(-0.010479908 -4.3866889e-06 1.4212645e-23)
(-0.010218219 -4.3640809e-06 -1.4212785e-23)
(-0.0099579799 -4.3392626e-06 0)
(-0.009699335 -4.3106942e-06 -1.4451092e-23)
(-0.0094424236 -4.2806667e-06 1.4451229e-23)
(-0.028771597 1.8760777e-06 0)
(-0.028835634 1.4394928e-06 0)
(-0.028881805 1.0065405e-06 0)
(-0.028910393 5.8067817e-07 0)
(-0.028921685 1.5811746e-07 0)
(-0.028915804 -2.6108371e-07 0)
(-0.028892886 -6.7505187e-07 0)
(-0.028853229 -1.0817546e-06 0)
(-0.028797145 -1.4805268e-06 0)
(-0.028724969 -1.8709943e-06 0)
(-0.028637041 -2.2529009e-06 0)
(-0.028533716 -2.6260032e-06 0)
(-0.028415363 -2.9902739e-06 -1.0192263e-23)
(-0.028282358 -3.3451821e-06 1.0192308e-23)
(-0.028135087 -3.690565e-06 0)
(-0.02797395 -4.0260116e-06 0)
(-0.027799352 -4.3514443e-06 0)
(-0.027611712 -4.6666242e-06 0)
(-0.027411455 -4.9713771e-06 0)
(-0.02719902 -5.2651421e-06 0)
(-0.026974846 -5.5480767e-06 0)
(-0.026739385 -5.8201093e-06 0)
(-0.026493083 -6.0812038e-06 0)
(-0.026236395 -6.3305845e-06 0)
(-0.025969803 -6.5684883e-06 0)
(-0.025693767 -6.7952765e-06 0)
(-0.025408743 -7.0108755e-06 0)
(-0.025115189 -7.2152334e-06 0)
(-0.024813554 -7.4087472e-06 2.984503e-24)
(-0.024504286 -7.5913926e-06 -2.9845381e-24)
(-0.024187827 -7.7633621e-06 -3.0384888e-24)
(-0.023864612 -7.9249794e-06 4.571175e-24)
(-0.023535075 -8.0753864e-06 -1.532666e-24)
(-0.023199638 -8.2152052e-06 7.7961499e-25)
(-0.022858707 -8.3446677e-06 -7.796261e-25)
(-0.022512698 -8.4666446e-06 0)
(-0.022161992 -8.5766634e-06 0)
(-0.021806983 -8.678396e-06 -8.0568607e-25)
(-0.021448046 -8.7704554e-06 8.0569771e-25)
(-0.021085645 -8.8498153e-06 -1.6368535e-24)
(-0.020720227 -8.9216476e-06 1.6368789e-24)
(-0.020352055 -8.9865949e-06 0)
(-0.019981408 -9.0424956e-06 0)
(-0.019608734 -9.0886655e-06 0)
(-0.019234361 -9.1269241e-06 6.7944165e-24)
(-0.018858632 -9.1564624e-06 -6.7945175e-24)
(-0.018481876 -9.1780637e-06 0)
(-0.018104403 -9.192681e-06 0)
(-0.017726518 -9.2005923e-06 0)
(-0.017348514 -9.200508e-06 0)
(-0.016970657 -9.1942589e-06 0)
(-0.016593229 -9.1816137e-06 0)
(-0.01621647 -9.162586e-06 0)
(-0.015840632 -9.1369326e-06 0)
(-0.015465968 -9.1061247e-06 0)
(-0.015092698 -9.0690504e-06 0)
(-0.014721058 -9.0271248e-06 0)
(-0.014351256 -8.980236e-06 0)
(-0.013983516 -8.9287928e-06 -1.4836404e-23)
(-0.01361804 -8.8706505e-06 1.4836636e-23)
(-0.013255023 -8.8089291e-06 0)
(-0.037222218 3.8998336e-06 0)
(-0.037324321 3.128319e-06 0)
(-0.037402954 2.3796916e-06 0)
(-0.037458491 1.6389905e-06 0)
(-0.037491304 9.1043151e-07 0)
(-0.03750177 1.8812248e-07 0)
(-0.037490034 -5.2857808e-07 0)
(-0.037456286 -1.2361237e-06 -9.8735292e-24)
(-0.037400921 -1.9310614e-06 9.8735263e-24)
(-0.037324348 -2.6124013e-06 0)
(-0.037227001 -3.2796133e-06 0)
(-0.037109326 -3.9322363e-06 0)
(-0.036971785 -4.5695791e-06 -1.0408414e-23)
(-0.036814856 -5.1915956e-06 1.0408469e-23)
(-0.03663903 -5.7977974e-06 0)
(-0.036444808 -6.3875574e-06 0)
(-0.036232709 -6.9602785e-06 0)
(-0.036003258 -7.5160949e-06 0)
(-0.035757001 -8.0542137e-06 1.1076559e-23)
(-0.035494487 -8.5742013e-06 -1.1076666e-23)
(-0.035216285 -9.0756459e-06 0)
(-0.034922963 -9.5586563e-06 0)
(-0.034615107 -1.0022889e-05 5.7647592e-24)
(-0.034293293 -1.0468198e-05 -5.7648337e-24)
(-0.033958112 -1.0893685e-05 5.8781998e-24)
(-0.033610184 -1.1299737e-05 -5.8782818e-24)
(-0.033250103 -1.1686632e-05 0)
(-0.032878461 -1.2054231e-05 0)
(-0.032495847 -1.240276e-05 0)
(-0.032102842 -1.2732698e-05 0)
(-0.031700022 -1.304423e-05 0)
(-0.031287961 -1.3337526e-05 0)
(-0.030867219 -1.3612718e-05 0)
(-0.030438356 -1.3869053e-05 0)
(-0.030001914 -1.4107618e-05 0)
(-0.029558421 -1.4328803e-05 0)
(-0.029108411 -1.4536054e-05 0)
(-0.028652378 -1.4724061e-05 0)
(-0.028190828 -1.4897404e-05 0)
(-0.027724245 -1.5053911e-05 0)
(-0.027253229 -1.5189188e-05 0)
(-0.026778352 -1.5310973e-05 -3.4047258e-24)
(-0.02629996 -1.5421377e-05 6.8352798e-24)
(-0.025818408 -1.5516567e-05 2.5445315e-26)
(-0.025334275 -1.5595146e-05 -3.4560754e-24)
(-0.024847984 -1.5659959e-05 7.0126076e-24)
(-0.024359976 -1.5710052e-05 -7.0127553e-24)
(-0.023870675 -1.574655e-05 7.1111756e-24)
(-0.023380483 -1.5771023e-05 -1.4271005e-23)
(-0.022889791 -1.5783818e-05 7.1598339e-24)
(-0.022398977 -1.5783346e-05 0)
(-0.021908386 -1.5772022e-05 0)
(-0.021418379 -1.5749837e-05 0)
(-0.020929267 -1.5717102e-05 1.4788183e-23)
(-0.020441376 -1.5673084e-05 -2.9667165e-23)
(-0.019955031 -1.5619805e-05 1.4878981e-23)
(-0.019470517 -1.555636e-05 0)
(-0.018988137 -1.5484443e-05 0)
(-0.018508161 -1.5403781e-05 0)
(-0.018030878 -1.5315053e-05 0)
(-0.017556547 -1.5215516e-05 1.5397932e-23)
(-0.017085422 -1.5109348e-05 -1.5398255e-23)
(-0.045904623 5.8557687e-06 0)
(-0.046024747 4.6710984e-06 0)
(-0.046116027 3.517201e-06 1.9337212e-23)
(-0.046178929 2.3772405e-06 -1.9337171e-23)
(-0.046213921 1.2560903e-06 -1.9743486e-23)
(-0.046221473 1.4527052e-07 9.7677647e-24)
(-0.046201737 -9.5693843e-07 -1.0546209e-25)
(-0.046154973 -2.0448962e-06 1.0081119e-23)
(-0.046081678 -3.113164e-06 0)
(-0.045982362 -4.1603353e-06 0)
(-0.045857561 -5.1857186e-06 -1.0515899e-23)
(-0.045707828 -6.1884922e-06 -1.1147576e-25)
(-0.045533737 -7.1678079e-06 1.0627418e-23)
(-0.045335877 -8.1234444e-06 0)
(-0.045114857 -9.0543024e-06 1.0967178e-23)
(-0.044871294 -9.9599383e-06 -2.2049154e-23)
(-0.044605828 -1.083963e-05 -1.1522675e-25)
(-0.04431911 -1.1692898e-05 1.1197345e-23)
(-0.04401181 -1.2518881e-05 0)
(-0.043684605 -1.3316937e-05 1.1545863e-23)
(-0.043338196 -1.4086529e-05 -2.3208699e-23)
(-0.042973283 -1.4827764e-05 5.7730064e-24)
(-0.042590585 -1.554004e-05 5.8899322e-24)
(-0.042190813 -1.6223198e-05 0)
(-0.04177469 -1.6875974e-05 0)
(-0.041342981 -1.7498841e-05 0)
(-0.040896413 -1.8092116e-05 -6.1823347e-24)
(-0.040435713 -1.8655758e-05 6.1824535e-24)
(-0.039961604 -1.9190222e-05 -6.2986718e-24)
(-0.039474798 -1.9696042e-05 9.477084e-24)
(-0.038976005 -2.0173211e-05 -3.1783498e-24)
(-0.038465925 -2.0622242e-05 -3.2358342e-24)
(-0.037945248 -2.1043809e-05 3.2359091e-24)
(-0.037414658 -2.1436856e-05 0)
(-0.036874822 -2.1802534e-05 1.6605507e-24)
(-0.036326387 -2.2141311e-05 -2.4978916e-24)
(-0.035770006 -2.245767e-05 8.3731963e-25)
(-0.035206286 -2.2745845e-05 8.5120266e-25)
(-0.034635849 -2.3010716e-05 -2.5673845e-24)
(-0.034059286 -2.3249446e-05 1.7162045e-24)
(-0.03347733 -2.3456898e-05 0)
(-0.032890685 -2.3642867e-05 3.5135209e-24)
(-0.03229978 -2.3811137e-05 -3.5136195e-24)
(-0.03170504 -2.3956047e-05 -3.5664809e-24)
(-0.031107181 -2.407549e-05 1.0751769e-23)
(-0.030506719 -2.4173905e-05 -7.1853939e-24)
(-0.029904195 -2.424999e-05 7.2880652e-24)
(-0.029300128 -2.4305154e-05 -7.2882807e-24)
(-0.02869501 -2.4341536e-05 0)
(-0.02808932 -2.4359922e-05 -7.4383822e-24)
(-0.027483523 -2.4358263e-05 7.4386026e-24)
(-0.026878039 -2.4339728e-05 7.5358315e-24)
(-0.026273312 -2.4304562e-05 7.6313695e-24)
(-0.025669724 -2.4253177e-05 -3.0429927e-23)
(-0.025067674 -2.4184668e-05 1.5262507e-23)
(-0.024467559 -2.4101712e-05 0)
(-0.023869731 -2.400335e-05 1.5539049e-23)
(-0.023274562 -2.3891655e-05 8.9559138e-26)
(-0.022682381 -2.3766467e-05 -3.1347423e-23)
(-0.022093543 -2.3628597e-05 1.5718385e-23)
(-0.021508367 -2.3474848e-05 0)
(-0.020927164 -2.3310697e-05 1.5977568e-23)
(-0.054732255 8.1926008e-06 1.9544654e-23)
(-0.054868284 6.49381e-06 -1.9544479e-23)
(-0.054970048 4.8348212e-06 1.9949065e-23)
(-0.055038108 3.1978032e-06 -4.0105791e-23)
(-0.055073032 1.588066e-06 4.0524824e-23)
(-0.055075391 -6.5732888e-09 2.145419e-25)
(-0.055045308 -1.5889411e-06 2.1759059e-25)
(-0.054983157 -3.1499907e-06 -1.0289667e-23)
(-0.054889533 -4.6824474e-06 -1.0510052e-23)
(-0.05476505 -6.1845823e-06 -1.0734367e-23)
(-0.05461035 -7.6551363e-06 1.0734349e-23)
(-0.054426095 -9.0931298e-06 0)
(-0.054212973 -1.0497293e-05 0)
(-0.053971688 -1.1867021e-05 0)
(-0.053702966 -1.3201484e-05 0)
(-0.053407547 -1.4499544e-05 -1.1432081e-23)
(-0.053086194 -1.5759923e-05 1.1432179e-23)
(-0.052739683 -1.6982303e-05 -1.1670535e-23)
(-0.052368811 -1.8165378e-05 2.3461103e-23)
(-0.051974387 -1.9308605e-05 -1.1790595e-23)
(-0.051557244 -2.0410899e-05 0)
(-0.051118215 -2.1472135e-05 0)
(-0.050658154 -2.2491825e-05 -6.1363919e-24)
(-0.050177907 -2.3469749e-05 6.1365073e-24)
(-0.049678336 -2.4404108e-05 0)
(-0.049160344 -2.529527e-05 -6.3175596e-24)
(-0.048624797 -2.6144167e-05 6.3177039e-24)
(-0.048072556 -2.6950574e-05 0)
(-0.04750448 -2.7715045e-05 6.4978767e-24)
(-0.046921413 -2.8438353e-05 -6.4980416e-24)
(-0.046324196 -2.9120705e-05 3.3085803e-24)
(-0.04571366 -2.9762841e-05 -3.308675e-24)
(-0.045090623 -3.0365175e-05 0)
(-0.044455896 -3.0926763e-05 0)
(-0.043810267 -3.1449383e-05 1.7131243e-24)
(-0.043154506 -3.1933779e-05 -1.713179e-24)
(-0.042489386 -3.2384961e-05 0)
(-0.041815626 -3.2796563e-05 0)
(-0.041133962 -3.3174526e-05 -1.7705414e-24)
(-0.040445096 -3.3514931e-05 3.5552347e-24)
(-0.039749892 -3.3810694e-05 -1.7846949e-24)
(-0.039049188 -3.4075231e-05 0)
(-0.038343495 -3.4314771e-05 -3.6524181e-24)
(-0.03763331 -3.4520903e-05 3.6525494e-24)
(-0.036919483 -3.4690524e-05 0)
(-0.036202626 -3.4829684e-05 0)
(-0.035483379 -3.4937111e-05 0)
(-0.034762355 -3.5014789e-05 -7.5718233e-24)
(-0.034040139 -3.506522e-05 7.572111e-24)
(-0.033317297 -3.5089297e-05 0)
(-0.032594378 -3.5085381e-05 7.7254255e-24)
(-0.031871883 -3.5057147e-05 -7.7257253e-24)
(-0.031150334 -3.5004908e-05 1.5649917e-23)
(-0.030430187 -3.4929525e-05 9.716758e-26)
(-0.029711913 -3.4830062e-05 -1.5748319e-23)
(-0.028995985 -3.4709581e-05 1.5939723e-23)
(-0.028282817 -3.4566972e-05 9.3605392e-26)
(-0.027572851 -3.4405057e-05 -1.6034583e-23)
(-0.026866479 -3.4223575e-05 0)
(-0.026164121 -3.4024014e-05 -1.6309507e-23)
(-0.025466153 -3.3802342e-05 -8.883104e-26)
(-0.024772946 -3.356506e-05 3.2886851e-23)
(-0.063509314 1.323864e-05 0)
(-0.063699164 1.0898158e-05 0)
(-0.063848735 8.5772006e-06 2.0362772e-23)
(-0.063958577 6.3065846e-06 -2.0362452e-23)
(-0.064029356 4.0679273e-06 0)
(-0.064061742 1.8669498e-06 0)
(-0.064056402 -3.1331067e-07 2.1225894e-23)
(-0.064013416 -2.476672e-06 -4.2675326e-23)
(-0.063933303 -4.6097883e-06 4.3126296e-23)
(-0.063816756 -6.7033789e-06 -2.1676493e-23)
(-0.063664495 -8.7551149e-06 0)
(-0.063477273 -1.0763507e-05 0)
(-0.063255863 -1.2727169e-05 0)
(-0.06300107 -1.4644316e-05 0)
(-0.062713716 -1.6514302e-05 0)
(-0.062394648 -1.8335577e-05 0)
(-0.062044728 -2.0106814e-05 1.1788556e-23)
(-0.061664845 -2.1826694e-05 -1.1788619e-23)
(-0.061255901 -2.349436e-05 1.2034371e-23)
(-0.060818826 -2.5108395e-05 1.2351691e-25)
(-0.06035456 -2.6667499e-05 -1.2158133e-23)
(-0.059864068 -2.8170609e-05 1.2406268e-23)
(-0.059348319 -2.9617607e-05 -1.2406465e-23)
(-0.058808305 -3.1007761e-05 0)
(-0.058245007 -3.234082e-05 -6.3899875e-24)
(-0.057659425 -3.3614181e-05 1.2842409e-23)
(-0.057052604 -3.4828479e-05 -6.4524328e-24)
(-0.056425546 -3.5985026e-05 0)
(-0.05577925 -3.7083781e-05 -6.6386685e-24)
(-0.055114709 -3.8125099e-05 6.6388655e-24)
(-0.054432901 -3.9110087e-05 6.7621685e-24)
(-0.053734798 -4.0039267e-05 -3.3505869e-24)
(-0.053021363 -4.0913167e-05 -3.4119103e-24)
(-0.052293539 -4.1732627e-05 0)
(-0.051552268 -4.2496973e-05 0)
(-0.05079846 -4.3208057e-05 1.7666091e-24)
(-0.050033003 -4.3867311e-05 -1.7666785e-24)
(-0.049256794 -4.4480219e-05 0)
(-0.048470665 -4.5039998e-05 -9.0560711e-25)
(-0.047675464 -4.5553396e-05 9.0564555e-25)
(-0.046872005 -4.6015172e-05 0)
(-0.046061281 -4.6416859e-05 -3.7097086e-24)
(-0.045244265 -4.6775258e-05 3.7098773e-24)
(-0.044421554 -4.7099592e-05 0)
(-0.043593711 -4.7378318e-05 0)
(-0.042761724 -4.7607578e-05 0)
(-0.041926298 -4.7795234e-05 -7.7005042e-24)
(-0.041088174 -4.7939636e-05 -5.423575e-26)
(-0.04024806 -4.8043416e-05 7.7554913e-24)
(-0.039406631 -4.810979e-05 -7.8626341e-24)
(-0.03856454 -4.8140079e-05 1.5778566e-23)
(-0.037722423 -4.8132444e-05 -7.9159347e-24)
(-0.036880859 -4.8091609e-05 0)
(-0.036040451 -4.8017887e-05 0)
(-0.035201726 -4.7912596e-05 -1.6242441e-23)
(-0.034365231 -4.7774561e-05 3.2585568e-23)
(-0.033531508 -4.7607553e-05 -3.2784035e-23)
(-0.032701042 -4.7410905e-05 3.2980089e-23)
(-0.031874339 -4.7187543e-05 -1.6539166e-23)
(-0.031051857 -4.6937269e-05 0)
(-0.030234079 -4.6661932e-05 0)
(-0.029421442 -4.6357092e-05 -1.6915676e-23)
(-0.028614374 -4.6030769e-05 1.6916543e-23)
(-0.072590755 1.7039554e-05 0)
(-0.072797078 1.395138e-05 -2.0775622e-23)
(-0.072957536 1.089305e-05 -2.1307698e-25)
(-0.073072772 7.8972792e-06 4.2191588e-23)
(-0.073143559 4.945694e-06 -2.1203711e-23)
(-0.073170678 2.0443854e-06 0)
(-0.073154876 -8.3021037e-07 2.1876037e-23)
(-0.07309619 -3.6822776e-06 -2.1875184e-23)
(-0.072995305 -6.4924217e-06 0)
(-0.07285302 -9.2500105e-06 -2.2576332e-23)
(-0.072670162 -1.1952091e-05 -2.3974202e-25)
(-0.072447598 -1.4596696e-05 4.5871949e-23)
(-0.072186216 -1.7181752e-05 -3.4707032e-23)
(-0.07188694 -1.9705524e-05 -1.2321556e-25)
(-0.071550711 -2.2166736e-05 1.177332e-23)
(-0.071178501 -2.4563307e-05 0)
(-0.070771296 -2.6893836e-05 0)
(-0.070330114 -2.9156283e-05 0)
(-0.069855985 -3.1349739e-05 0)
(-0.069349971 -3.3472184e-05 0)
(-0.068813145 -3.5522171e-05 -1.2655944e-23)
(-0.068246609 -3.7498426e-05 1.2656054e-23)
(-0.067651467 -3.940053e-05 0)
(-0.067028848 -4.122751e-05 0)
(-0.066379871 -4.2978946e-05 0)
(-0.065705675 -4.4652049e-05 -6.6486327e-24)
(-0.065007446 -4.6247471e-05 6.6487867e-24)
(-0.064286324 -4.7766684e-05 0)
(-0.063543445 -4.9209445e-05 6.8407025e-24)
(-0.062779937 -5.0576784e-05 -6.8409221e-24)
(-0.06199691 -5.1870004e-05 6.9679992e-24)
(-0.061195471 -5.3089303e-05 -6.9682461e-24)
(-0.060376711 -5.4235894e-05 3.5471907e-24)
(-0.059541702 -5.5310893e-05 -3.5473347e-24)
(-0.058691512 -5.631365e-05 0)
(-0.057827175 -5.7246564e-05 1.8204318e-24)
(-0.056949701 -5.8111069e-05 -1.8205176e-24)
(-0.056060104 -5.8913525e-05 0)
(-0.055159332 -5.9647318e-05 0)
(-0.054248346 -6.0319575e-05 0)
(-0.053328069 -6.0923591e-05 0)
(-0.052399624 -6.144936e-05 0)
(-0.051464118 -6.1917591e-05 -3.8524858e-24)
(-0.050522238 -6.2340952e-05 3.8527074e-24)
(-0.049574605 -6.2704575e-05 0)
(-0.048622351 -6.3002831e-05 7.8790904e-24)
(-0.047666272 -6.3246263e-05 -1.5815627e-23)
(-0.046707209 -6.3433167e-05 7.9365378e-24)
(-0.045745963 -6.3566827e-05 8.0482536e-24)
(-0.044783301 -6.3650908e-05 5.4716404e-26)
(-0.043819963 -6.3687127e-05 -8.1040154e-24)
(-0.04285667 -6.3673973e-05 1.6424347e-23)
(-0.041894079 -6.3616722e-05 1.0578334e-25)
(-0.040932875 -6.3516405e-05 -3.3169216e-23)
(-0.039973656 -6.3374709e-05 1.6638008e-23)
(-0.039017043 -6.3190232e-05 0)
(-0.03806365 -6.2967181e-05 1.6946435e-23)
(-0.037114029 -6.2705228e-05 -3.3994753e-23)
(-0.036168756 -6.2407874e-05 1.7048307e-23)
(-0.035228349 -6.2074799e-05 0)
(-0.034293357 -6.1708957e-05 0)
(-0.033364276 -6.1304787e-05 0)
(-0.032441594 -6.0871876e-05 0)
(-0.081794503 2.1283e-05 -4.2151455e-23)
(-0.082014316 1.7322146e-05 2.1179386e-23)
(-0.082182655 1.3403719e-05 0)
(-0.082300266 9.5622013e-06 -2.1834451e-23)
(-0.082368028 5.7796145e-06 -2.2749533e-25)
(-0.082386843 2.0617114e-06 2.2059313e-23)
(-0.082357504 -1.6228364e-06 -2.252387e-23)
(-0.082280034 -5.2776549e-06 4.5282528e-23)
(-0.082155298 -8.8761378e-06 -2.2758756e-23)
(-0.081984203 -1.2406692e-05 0)
(-0.081767687 -1.5865623e-05 2.3488068e-23)
(-0.081506736 -1.9250342e-05 -4.7222986e-23)
(-0.081202355 -2.2558557e-05 -2.5158679e-25)
(-0.080855589 -2.5787554e-05 2.3985539e-23)
(-0.080467503 -2.8935737e-05 -1.2246932e-23)
(-0.080039192 -3.2001101e-05 1.2246533e-23)
(-0.079571772 -3.4981239e-05 -1.2504157e-23)
(-0.079066389 -3.7874072e-05 1.2503878e-23)
(-0.078524205 -4.0678097e-05 0)
(-0.077946415 -4.3390997e-05 -1.2895036e-23)
(-0.077334227 -4.6010875e-05 -1.313587e-25)
(-0.076688878 -4.8535955e-05 1.3026237e-23)
(-0.07601161 -5.0965986e-05 0)
(-0.07530369 -5.3299752e-05 0)
(-0.074566374 -5.5536744e-05 0)
(-0.073800942 -5.7673325e-05 0)
(-0.073008721 -5.9710232e-05 0)
(-0.072190988 -6.1649324e-05 -6.9747041e-24)
(-0.071349015 -6.3490731e-05 -6.5572427e-26)
(-0.070484066 -6.5235717e-05 7.0406794e-24)
(-0.069597384 -6.6885588e-05 0)
(-0.068690206 -6.8441052e-05 0)
(-0.067763754 -6.9903504e-05 0)
(-0.066819228 -7.127383e-05 0)
(-0.065857822 -7.2552154e-05 1.8576332e-24)
(-0.064880692 -7.3741204e-05 -1.8577292e-24)
(-0.06388897 -7.4842835e-05 0)
(-0.062883787 -7.5864314e-05 0)
(-0.061866206 -7.6798798e-05 -9.6051766e-25)
(-0.0608373 -7.7654103e-05 9.6057849e-25)
(-0.059798101 -7.8422134e-05 0)
(-0.058749858 -7.9090505e-05 0)
(-0.057693815 -7.9684341e-05 0)
(-0.056630748 -8.0221345e-05 0)
(-0.055561335 -8.0682095e-05 0)
(-0.05448685 -8.1059327e-05 0)
(-0.053408179 -8.1366348e-05 0)
(-0.052326263 -8.1601257e-05 0)
(-0.051241997 -8.176792e-05 0)
(-0.050156237 -8.1870917e-05 0)
(-0.04906981 -8.1912701e-05 1.6796747e-23)
(-0.047983521 -8.1891777e-05 1.1016467e-25)
(-0.046898107 -8.1814384e-05 1.0890231e-25)
(-0.04581433 -8.1681761e-05 -1.7020295e-23)
(-0.044732862 -8.1496107e-05 0)
(-0.043654398 -8.1255923e-05 1.7342467e-23)
(-0.042579622 -8.0966284e-05 -1.7344074e-23)
(-0.041509154 -8.0627274e-05 0)
(-0.040443636 -8.0242502e-05 -1.7654753e-23)
(-0.039383651 -7.9811658e-05 1.7656423e-23)
(-0.038329812 -7.9338889e-05 -1.7856557e-23)
(-0.037282674 -7.881772e-05 -9.7261567e-26)
(-0.036242784 -7.8259101e-05 5.4063708e-23)
(-0.09081656 3.0977672e-05 0)
(-0.091104426 2.5935123e-05 2.1782405e-23)
(-0.091334292 2.0969035e-05 -2.1779378e-23)
(-0.091507074 1.6060651e-05 0)
(-0.091623621 1.124564e-05 0)
(-0.091684929 6.5068754e-06 -2.2681483e-23)
(-0.091692024 1.8492433e-06 2.2678914e-23)
(-0.091645696 -2.7679069e-06 0)
(-0.091546009 -7.3463515e-06 -2.3396762e-23)
(-0.091394016 -1.1850813e-05 2.3393851e-23)
(-0.091190732 -1.6269319e-05 0)
(-0.090937216 -2.0597365e-05 0)
(-0.090634569 -2.4831948e-05 0)
(-0.09028392 -2.8969775e-05 0)
(-0.089886437 -3.3007969e-05 0)
(-0.08944331 -3.6944675e-05 0)
(-0.088955764 -4.0776818e-05 1.2716276e-23)
(-0.088425042 -4.450191e-05 1.3291563e-25)
(-0.087852421 -4.8117223e-05 -1.2847619e-23)
(-0.087239196 -5.1620844e-05 1.3114675e-23)
(-0.086586697 -5.5009944e-05 1.345898e-25)
(-0.085896267 -5.8282425e-05 -1.324821e-23)
(-0.08516928 -6.1436183e-05 0)
(-0.084407117 -6.4470256e-05 0)
(-0.08361118 -6.7383748e-05 0)
(-0.082782865 -7.0175989e-05 0)
(-0.081923591 -7.2842461e-05 0)
(-0.081034825 -7.5384072e-05 0)
(-0.080117982 -7.7803481e-05 0)
(-0.079174469 -8.0100672e-05 0)
(-0.078205683 -8.2276913e-05 0)
(-0.077213001 -8.4334125e-05 0)
(-0.07619779 -8.6273133e-05 0)
(-0.0751614 -8.8095751e-05 -3.7502283e-24)
(-0.074105158 -8.9803459e-05 3.7504016e-24)
(-0.073030381 -9.1396014e-05 0)
(-0.07193835 -9.2876875e-05 0)
(-0.070830315 -9.4248942e-05 0)
(-0.069707523 -9.5519559e-05 0)
(-0.06857115 -9.6682255e-05 0)
(-0.067422382 -9.7745627e-05 0)
(-0.066262357 -9.869993e-05 0)
(-0.065092448 -9.9530294e-05 0)
(-0.063914034 -0.00010026657 0)
(-0.062727982 -0.00010093195 0)
(-0.061535024 -0.00010150228 0)
(-0.060336573 -0.00010196817 0)
(-0.059133608 -0.00010234615 0)
(-0.057927164 -0.00010263419 0)
(-0.05671823 -0.00010283712 0)
(-0.055507751 -0.00010296032 0)
(-0.05429664 -0.00010300666 0)
(-0.053085783 -0.00010297492 0)
(-0.051875997 -0.0001028725 0)
(-0.050668122 -0.00010270088 0)
(-0.049462902 -0.00010246294 0)
(-0.048261104 -0.00010215742 0)
(-0.047063483 -0.0001017896 1.7931605e-23)
(-0.045870724 -0.00010136004 -1.7933922e-23)
(-0.04468354 -0.00010087325 0)
(-0.043502572 -0.00010032858 0)
(-0.0423285 -9.9731286e-05 3.6708624e-23)
(-0.041161937 -9.9073969e-05 -3.6713557e-23)
(-0.040003487 -9.836966e-05 0)
(-0.10019805 3.7152513e-05 2.1920205e-23)
(-0.10049766 3.0948045e-05 2.2354024e-23)
(-0.10073357 2.4836736e-05 -4.4924087e-23)
(-0.10090681 1.8800883e-05 4.5371903e-23)
(-0.10101833 1.2877503e-05 -2.2796546e-23)
(-0.10106925 7.050722e-06 -2.3267304e-23)
(-0.10106074 1.3227782e-06 -2.4383515e-25)
(-0.1009935 -4.3568382e-06 2.3500939e-23)
(-0.10086774 -9.985788e-06 0)
(-0.10068468 -1.5519768e-05 -2.4243047e-23)
(-0.10044547 -2.0947031e-05 4.8733344e-23)
(-0.10015126 -2.6262161e-05 -2.4490509e-23)
(-0.099803302 -3.1461515e-05 -2.5008672e-23)
(-0.099402835 -3.6541305e-05 2.500431e-23)
(-0.098951155 -4.149774e-05 2.5532407e-23)
(-0.098449582 -4.632836e-05 -2.5528552e-23)
(-0.097899469 -5.1030114e-05 0)
(-0.09730219 -5.5599512e-05 0)
(-0.096659155 -6.0033404e-05 -1.3302309e-23)
(-0.095971793 -6.432967e-05 1.3300888e-23)
(-0.095241569 -6.8484723e-05 1.3574917e-23)
(-0.094469961 -7.2495936e-05 -1.3573753e-23)
(-0.093658481 -7.636097e-05 -1.3849528e-23)
(-0.092808646 -8.0079028e-05 1.3848636e-23)
(-0.091921998 -8.3648542e-05 -1.412541e-23)
(-0.091000067 -8.7068546e-05 -1.3880961e-25)
(-0.090044414 -9.0334204e-05 2.8664991e-23)
(-0.089056642 -9.344652e-05 1.3855765e-25)
(-0.088038303 -9.6408473e-05 -1.453989e-23)
(-0.086990936 -9.9220191e-05 0)
(-0.085916073 -0.00010188362 -7.4769089e-24)
(-0.084815219 -0.00010440064 -6.8561201e-26)
(-0.08368987 -0.00010677251 -6.8293278e-26)
(-0.082541504 -0.00010900146 3.7731557e-24)
(-0.081371572 -0.00011108894 -3.3830785e-26)
(-0.080181512 -0.00011303569 7.7843113e-24)
(-0.078972725 -0.00011484562 -5.8805412e-24)
(-0.077746581 -0.00011652185 2.9655073e-24)
(-0.076504439 -0.00011807274 -9.9411699e-25)
(-0.075247588 -0.00011949217 1.0106541e-24)
(-0.073977322 -0.00012078929 -3.0485081e-24)
(-0.072694883 -0.00012195243 6.1461763e-24)
(-0.071401765 -0.0001229642 3.2033659e-26)
(-0.07009948 -0.00012385962 -4.1411245e-24)
(-0.068788987 -0.00012466853 -8.4096767e-24)
(-0.067471067 -0.00012536102 1.6883774e-23)
(-0.066147272 -0.00012592499 6.1786556e-26)
(-0.064818668 -0.00012638132 6.1180157e-26)
(-0.063486387 -0.00012672766 -8.5994392e-24)
(-0.062151507 -0.00012696968 0)
(-0.060815061 -0.00012711338 1.7563513e-23)
(-0.059478045 -0.00012716258 1.1729546e-25)
(-0.058141427 -0.00012711667 1.1598671e-25)
(-0.0568061 -0.00012698362 -1.7805109e-23)
(-0.05547298 -0.00012676595 1.8036066e-23)
(-0.054142883 -0.00012646689 -1.8039107e-23)
(-0.052816647 -0.00012608492 -1.8264875e-23)
(-0.051495096 -0.00012562616 1.8268081e-23)
(-0.050178982 -0.00012509198 1.8488601e-23)
(-0.048869082 -0.00012448735 -1.8491947e-23)
(-0.047566101 -0.000123811 0)
(-0.046270779 -0.00012307044 -3.7629031e-23)
(-0.044983791 -0.00012225679 7.5477332e-23)
(-0.10925886 5.1378526e-05 0)
(-0.10963573 4.3771467e-05 -2.265312e-23)
(-0.1099423 3.6255118e-05 4.5514446e-23)