/*--------------------------------*- C++ -*----------------------------------*\
| =========                 |                                                 |
| \\      /  F ield         | OpenFOAM: The Open Source CFD Toolbox           |
|  \\    /   O peration     | Version:  2.4.0                                 |
|   \\  /    A nd           | Web:      www.OpenFOAM.org                      |
|    \\/     M anipulation  |                                                 |
\*---------------------------------------------------------------------------*/
FoamFile
{
    version     2.0;
    format      ascii;
    class       volScalarField;
    location    "8247";
    object      I03;
}
// * * * * * * * * * * * * * * * * * * * * * * * * * * * * * * * * * * * * * //

dimensions      [0 0 0 0 0 0 0];

internalField   nonuniform List<scalar> 
32000
(
-9.640579e-15
-2.5623121e-14
4.4985231e-14
-1.5187631e-14
7.7872289e-15
-3.72802e-15
-3.072302e-16
-7.7564119e-15
-5.6106169e-15
-4.3465615e-15
-2.7988686e-15
-1.7955983e-15
-1.2498051e-15
-9.4599229e-16
-7.4211828e-16
-5.8683895e-16
-4.4919364e-16
-3.4664409e-16
-2.8473358e-16
-2.3600996e-16
-1.9827773e-16
-1.722043e-16
-1.54608e-16
-1.4983388e-16
-1.6049952e-16
-1.9628824e-16
-2.6501761e-16
-3.4750913e-16
-4.44775e-16
-5.6540487e-16
-7.0267061e-16
-8.507036e-16
-9.933917e-16
-1.1064173e-15
-1.1528302e-15
-1.1218705e-15
-1.0697617e-15
-1.0339611e-15
-9.3802111e-16
-8.0944482e-16
-6.20669e-16
-4.4196775e-16
-1.7269169e-16
-1.0602729e-16
2.9247258e-16
-1.2938669e-16
1.8898786e-15
1.2419297e-15
2.2609002e-15
1.7846922e-15
2.3580561e-15
2.1347842e-15
2.417864e-15
2.2978265e-15
2.4016995e-15
2.3063715e-15
2.3031402e-15
2.2002649e-15
2.1289859e-15
2.0074525e-15
1.8969915e-15
1.7628397e-15
1.6331262e-15
1.494103e-15
1.3591869e-15
1.2233298e-15
1.0931961e-15
9.6715189e-16
8.4847182e-16
7.3675976e-16
6.3358543e-16
5.387496e-16
4.5268043e-16
3.7518367e-16
3.0620947e-16
2.4528445e-16
1.9253971e-16
1.4694674e-16
1.079048e-16
7.5265635e-17
4.8149028e-17
2.6061391e-17
8.5819591e-18
-5.133978e-18
-1.5333304e-17
-2.268235e-17
-2.7541806e-17
-3.0365682e-17
-3.1545405e-17
-3.1364617e-17
-3.0189147e-17
-2.8196504e-17
-2.5717179e-17
-2.2854394e-17
-1.983551e-17
-1.6775913e-17
-1.3787311e-17
-1.096526e-17
-8.3797027e-18
-6.083004e-18
-4.1200671e-18
-2.533712e-18
-1.335914e-18
-5.2605047e-19
-9.1127569e-20
-1.3018402e-20
-2.7132536e-19
-8.4432992e-19
-1.7084331e-18
-2.836494e-18
-4.204474e-18
-5.7810305e-18
-7.5409317e-18
-9.4568323e-18
-1.1496405e-17
-1.3641017e-17
-1.5860535e-17
-1.8124618e-17
-2.0424762e-17
-2.2726536e-17
-2.5011602e-17
-2.7264714e-17
-2.9470248e-17
-3.1592175e-17
-3.3653187e-17
-3.5596604e-17
-3.7441745e-17
-3.9147072e-17
-4.0751867e-17
-4.2152566e-17
-4.3484878e-17
-4.4537576e-17
-4.5556053e-17
-4.6196452e-17
-4.6919787e-17
-4.7022125e-17
-4.7505469e-17
-4.6896778e-17
-4.7324003e-17
-4.5698655e-17
-4.6309959e-17
-4.2948517e-17
-4.4347896e-17
-3.8276568e-17
-4.1750151e-17
-3.1181883e-17
-3.8675137e-17
-2.1151721e-17
-3.5109732e-17
-8.1829755e-18
-3.0069136e-17
4.9144606e-18
-2.0306098e-17
8.6837618e-18
-1.2952208e-18
6.1957433e-18
7.8664702e-18
2.2360275e-17
3.4898643e-17
6.1781352e-17
8.6089777e-17
1.1947023e-16
1.4454438e-16
1.6194068e-16
1.5214702e-16
8.1697913e-17
-7.5102122e-17
-3.4279762e-16
-7.727514e-16
-1.3860651e-15
-2.2609017e-15
-3.3569372e-15
-4.7917712e-15
-6.2424202e-15
-7.6563832e-15
-8.7433327e-15
-1.0191656e-14
-1.1951717e-14
-1.3884102e-14
-1.6406856e-14
-1.9468719e-14
-2.3968521e-14
-2.9795269e-14
-4.1058021e-14
-6.0099345e-14
-8.6858311e-14
-1.2710417e-13
-1.8636161e-13
-2.8556442e-13
-4.3569963e-13
-7.0925288e-13
-1.0360581e-12
-1.470648e-12
-1.1282328e-12
-4.7531308e-13
3.3737672e-14
6.1806834e-15
4.284405e-14
-2.2600354e-14
8.5640335e-15
3.7644316e-13
-7.0092404e-12
1.2771665e-11
-5.6846124e-12
1.694283e-12
7.549486e-13
7.0631314e-15
1.0718151e-12
9.9319919e-13
7.4275933e-13
4.8648107e-13
3.1640236e-13
2.2303802e-13
1.6934383e-13
1.3364979e-13
1.0588137e-13
8.0888035e-14
6.3375654e-14
5.2130072e-14
4.324875e-14
3.6636639e-14
3.1860602e-14
2.8781932e-14
2.8130934e-14
3.0062543e-14
3.7488578e-14
5.0117696e-14
6.5235766e-14
8.3811311e-14
1.0617167e-13
1.3199355e-13
1.5953013e-13
1.8658396e-13
2.0767517e-13
2.1686828e-13
2.1077081e-13
2.0823026e-13
1.9862735e-13
1.8769635e-13
1.58152e-13
1.3887867e-13
8.113203e-14
7.9721174e-14
-1.8030469e-14
7.0370307e-14
-2.0344899e-13
8.1416324e-14
-5.157111e-13
-1.7934798e-13
-4.5205818e-13
-3.0750003e-13
-4.4302976e-13
-3.7714065e-13
-4.3866028e-13
-4.0457751e-13
-4.2585033e-13
-4.0224605e-13
-4.0136745e-13
-3.790043e-13
-3.6547702e-13
-3.4195773e-13
-3.2185863e-13
-2.9731711e-13
-2.7436877e-13
-2.4981495e-13
-2.2644495e-13
-2.0304665e-13
-1.8089969e-13
-1.5957013e-13
-1.3967682e-13
-1.2106296e-13
-1.0397847e-13
-8.8352161e-14
-7.4251896e-14
-6.1594409e-14
-5.0413725e-14
-4.0584462e-14
-3.2059659e-14
-2.4734636e-14
-1.8489374e-14
-1.327735e-14
-8.9728583e-15
-5.4558694e-15
-2.6936026e-15
-5.1885955e-16
1.1018193e-15
2.2685354e-15
3.0526721e-15
3.515708e-15
3.7303121e-15
3.7329373e-15
3.5911131e-15
3.3255381e-15
2.9903657e-15
2.6038806e-15
2.1986192e-15
1.7929564e-15
1.4045592e-15
1.0469047e-15
7.3042246e-16
4.6567254e-16
2.5821058e-16
1.1160307e-16
2.6029079e-17
1.8267264e-19
3.1746877e-17
1.1792446e-16
2.5551316e-16
4.4083062e-16
6.7001563e-16
9.3815284e-16
1.2417461e-15
1.5752073e-15
1.9342393e-15
2.3153335e-15
2.7124767e-15
3.1226628e-15
3.5421709e-15
3.9650969e-15
4.3901852e-15
4.8130993e-15
5.2309792e-15
5.6388294e-15
6.0394616e-15
6.4219066e-15
6.7933559e-15
7.1422613e-15
7.4790821e-15
7.7820992e-15
8.0795045e-15
8.3263147e-15
8.5829347e-15
8.7609985e-15
8.9770695e-15
9.0620618e-15
9.2581721e-15
9.2052682e-15
9.4255169e-15
9.1606232e-15
9.4938919e-15
8.848621e-15
9.4593914e-15
8.1492466e-15
9.3905075e-15
6.90308e-15
9.3832007e-15
4.9032201e-15
9.5137022e-15
1.947023e-15
9.6420578e-15
-1.8041728e-15
8.9464777e-15
-5.0267392e-15
4.0399799e-15
-1.5855551e-15
-3.7376423e-16
-3.5586358e-15
-4.7572235e-15
-9.8354501e-15
-1.3242004e-14
-2.0237494e-14
-2.4809237e-14
-3.107893e-14
-3.2782668e-14
-3.1187995e-14
-1.8112841e-14
1.1875258e-14
6.1940661e-14
1.3980836e-13
2.5367161e-13
4.0854951e-13
6.1290583e-13
8.5963115e-13
1.1376507e-12
1.3781801e-12
1.6041298e-12
1.8322083e-12
2.1754824e-12
2.5153225e-12
2.9673845e-12
3.5314635e-12
4.3058275e-12
5.4115563e-12
7.2811212e-12
1.0660857e-11
1.5341967e-11
2.2226964e-11
3.2567281e-11
4.8978356e-11
7.5096868e-11
1.1727116e-10
1.7497468e-10
2.2307712e-10
1.9095877e-10
5.0732796e-11
2.4050858e-12
-2.3219525e-11
3.8292642e-12
-1.1807335e-11
4.2945267e-12
-6.541652e-12
-2.9220449e-10
4.8071179e-10
-1.9850318e-10
7.0466402e-11
-5.1584454e-12
7.9161939e-14
1.1175928e-12
4.2773446e-12
2.5325347e-12
1.7254354e-12
1.1459712e-12
8.2595445e-13
6.1933232e-13
4.9551903e-13
3.931791e-13
2.9398888e-13
2.4344902e-13
1.9765282e-13
1.617419e-13
1.3951537e-13
1.1831317e-13
1.0527651e-13
1.014938e-13
9.9896794e-14
1.3398763e-13
1.719098e-13
2.1965713e-13
2.9314196e-13
3.6956979e-13
4.6727908e-13
5.6810816e-13
6.8002512e-13
7.6332766e-13
8.0676992e-13
7.5662412e-13
8.5816234e-13
7.4189322e-13
8.2544802e-13
5.9088172e-13
8.4295578e-13
1.3644093e-13
1.1644122e-12
-9.6838793e-13
2.8122061e-12
-6.29004e-12
7.8593612e-12
-9.4019074e-12
3.0100992e-12
-4.7630078e-12
1.1254956e-12
-2.4323437e-12
4.620576e-13
-1.0481758e-12
3.9165709e-13
-1.7439916e-13
5.6594962e-13
4.0196892e-13
7.9539713e-13
7.7776006e-13
9.8639155e-13
1.0012807e-12
1.1002516e-12
1.1045454e-12
1.1340783e-12
1.1142613e-12
1.0982683e-12
1.0563009e-12
1.0125771e-12
9.5509393e-13
8.9517724e-13
8.3024509e-13
7.651381e-13
6.98879e-13
6.3474875e-13
5.7146102e-13
5.1262824e-13
4.5687021e-13
4.0438418e-13
3.5697824e-13
3.129005e-13
2.7283098e-13
2.3755407e-13
2.0472264e-13
1.7641118e-13
1.5065853e-13
1.2813422e-13
1.0835882e-13
9.0843207e-14
7.5826609e-14
6.2447956e-14
5.1175698e-14
4.1138185e-14
3.2799089e-14
2.5567345e-14
1.9498662e-14
1.4440084e-14
1.0280028e-14
6.9273423e-15
4.3001485e-15
2.3671702e-15
1.0421512e-15
2.7550605e-16
4.0840026e-18
1.7332777e-16
7.3470221e-16
1.6455935e-15
2.8669811e-15
4.3613567e-15
6.1101384e-15
8.0452292e-15
1.0183042e-14
1.245395e-14
1.4824031e-14
1.7318506e-14
1.9824574e-14
2.2378934e-14
2.4966933e-14
2.7469306e-14
2.9946972e-14
3.2369194e-14
3.4681897e-14
3.6822219e-14
3.8952704e-14
4.0700981e-14
4.2460279e-14
4.3859402e-14
4.5262249e-14
4.5998101e-14
4.7178938e-14
4.7073823e-14
4.8057454e-14
4.6906687e-14
4.7992307e-14
4.5011213e-14
4.7222049e-14
4.1064173e-14
4.6284562e-14
3.4244987e-14
4.6219849e-14
2.2810273e-14
4.895344e-14
4.1175438e-15
5.8424706e-14
-2.6924914e-14
8.0606387e-14
-7.6083414e-14
1.2219382e-13
-1.4885912e-13
1.8440136e-13
-2.3806668e-13
2.4305969e-13
-2.957592e-13
1.7003045e-13
-8.1835922e-14
4.7951857e-14
-5.24034e-14
1.4362144e-14
-6.9137563e-14
-2.0350015e-14
-9.6082509e-14
-6.099525e-14
-1.1290475e-13
-7.6665582e-14
-6.54631e-14
-2.2387747e-15
1.4540925e-13
3.6706249e-13
6.634651e-13
1.154657e-12
1.6809438e-12
2.581698e-12
3.275781e-12
4.5974654e-12
5.1568997e-12
6.5048506e-12
6.7174882e-12
8.4856835e-12
9.5762296e-12
1.1246075e-11
1.3636094e-11
1.5999369e-11
2.1519315e-11
2.6499681e-11
3.9888402e-11
5.7436135e-11
8.1260598e-11
1.2258802e-10
1.7594624e-10
2.9229812e-10
4.0468602e-10
7.3769398e-10
6.383118e-10
1.1331957e-09
4.177926e-11
4.2780356e-10
-4.7161602e-10
3.3788919e-10
-4.2025408e-10
2.0968094e-10
1.3816034e-10
-3.6191351e-09
5.9808287e-09
-2.1451171e-09
1.0702243e-09
-1.2529695e-10
6.6752252e-13
-2.3499345e-11
4.8133618e-12
-5.8858105e-12
-3.8061265e-12
-2.4200803e-12
-1.5377481e-12
-1.3067336e-12
-9.8560588e-13
-8.2688635e-13
-7.6574307e-13
-4.3918882e-13
-4.0152165e-13
-3.7079907e-13
-2.8078854e-13
-2.7460279e-13
-2.4742144e-13
-2.2304341e-13
-3.0797569e-13
-2.1672342e-13
-3.8611058e-13
-5.8402874e-13
-6.1785423e-13
-8.1604565e-13
-9.3071439e-13
-1.1083113e-12
-1.1377538e-12
-1.2408646e-12
-1.2119249e-12
-1.4880528e-12
1.9961824e-13
-6.7133764e-13
1.2265926e-12
-1.1431896e-13
4.6076471e-12
-1.5444384e-12
1.2973263e-11
-1.0494842e-11
3.7917325e-11
-7.1203904e-11
1.2371476e-10
-7.308207e-11
7.8206487e-11
-6.6053608e-12
6.7360027e-11
3.1375881e-11
6.8975735e-11
5.5094642e-11
7.402966e-11
6.9108465e-11
7.814995e-11
7.5962416e-11
7.9243222e-11
7.7127005e-11
7.6919469e-11
7.399247e-11
7.1571807e-11
6.7759028e-11
6.3999096e-11
5.9558323e-11
5.5119444e-11
5.0421224e-11
4.5800748e-11
4.1186986e-11
3.675776e-11
3.2506302e-11
2.8513127e-11
2.4792067e-11
2.1374854e-11
1.8251342e-11
1.5463509e-11
1.2979238e-11
1.0783195e-11
8.8838638e-12
7.2378289e-12
5.832217e-12
4.6568625e-12
3.6641841e-12
2.8553459e-12
2.1905568e-12
1.6582554e-12
1.2365548e-12
9.054864e-13
6.529156e-13
4.5919499e-13
3.1898293e-13
2.1398157e-13
1.4184653e-13
9.0673564e-14
5.6623721e-14
3.4435269e-14
2.0217666e-14
1.1302454e-14
5.7760018e-15
2.5767329e-15
7.4781388e-16
2.8083411e-17
3.9976397e-16
2.087318e-15
5.4074475e-15
1.0832294e-14
1.8781164e-14
2.9712453e-14
4.4247325e-14
6.2125038e-14
8.440494e-14
1.1064994e-13
1.4079272e-13
1.7573087e-13
2.1383968e-13
2.5589389e-13
3.017344e-13
3.4964021e-13
4.0027794e-13
4.5286283e-13
5.0616779e-13
5.5937674e-13
6.1385717e-13
6.6461419e-13
7.1584361e-13
7.6217407e-13
8.0783945e-13
8.4368019e-13
8.8330886e-13
9.0409415e-13
9.3599185e-13
9.3700384e-13
9.6337416e-13
9.3317656e-13
9.6555751e-13
8.847929e-13
9.4712036e-13
7.8024352e-13
9.2181367e-13
5.990462e-13
9.1936737e-13
3.1047709e-13
9.964121e-13
-1.5107749e-13
1.2414888e-12
-8.5830345e-13
1.7644917e-12
-1.8872264e-12
2.6270786e-12
-3.1679316e-12
3.5829486e-12
-4.1309697e-12
2.9447554e-12
-1.4580212e-12
1.000431e-12
-6.1560172e-13
7.2085134e-13
-3.3225222e-13
7.1970708e-13
-3.7166581e-14
7.6126019e-13
3.0221775e-13
8.3665172e-13
7.320764e-13
6.1228315e-13
6.8394452e-13
6.4661473e-13
7.4464403e-14
1.856174e-13
-1.4074791e-12
-5.6270644e-13
-4.5286467e-12
-1.3742273e-12
-6.1586459e-12
1.7471072e-13
-9.1180845e-12
-3.798783e-12
-7.3485743e-12
-9.2987025e-12
-7.8598393e-12
-1.8013084e-11
-5.0767263e-12
-3.9729623e-11
-3.9421408e-11
-4.8272433e-11
-8.2055801e-11
-5.7702449e-11
-1.5758932e-10
8.7035128e-11
-3.9693795e-10
1.1254167e-09
-1.9038516e-09
5.7488915e-09
-4.5811424e-10
6.9699816e-09
-3.8704868e-09
5.5638717e-09
-5.0799662e-09
3.5165954e-09
2.9963149e-09
-2.480482e-08
4.1224993e-08
-1.3206128e-08
8.6230935e-09
-8.2278228e-10
1.9044051e-11
-1.0313581e-10
3.6796674e-11
-2.9250028e-11
-1.9479911e-11
-1.2470785e-11
-7.7272469e-12
-6.792155e-12
-5.0877794e-12
-4.3621261e-12
-4.2680939e-12
-2.2685295e-12
-2.1183254e-12
-2.0054096e-12
-1.4506601e-12
-1.4547592e-12
-1.2709339e-12
-1.0766837e-12
-1.5719354e-12
-7.3165393e-13
-1.6384417e-12
-2.6831187e-12
-2.5413746e-12
-3.3539242e-12
-3.4905285e-12
-3.9823005e-12
-3.3307375e-12
-3.0412959e-12
-1.7410498e-12
-2.3135857e-12
1.125353e-11
7.8495447e-12
2.4061731e-11
1.8734051e-11
5.6237067e-11
1.8731792e-11
1.27071e-10
-3.1889598e-11
3.2287998e-10
-4.5458498e-10
9.6659009e-10
-3.472255e-10
7.3257793e-10
2.0555775e-10
7.332215e-10
5.2159705e-10
7.8763312e-10
7.0788376e-10
8.3599158e-10
8.027103e-10
8.5499337e-10
8.2974781e-10
8.3641429e-10
8.0579593e-10
7.8554171e-10
7.4662374e-10
7.1021944e-10
6.6459086e-10
6.1953137e-10
5.7059739e-10
5.2238499e-10
4.7346705e-10
4.2613252e-10
3.8007211e-10
3.3642983e-10
2.9523202e-10
2.5696193e-10
2.2171254e-10
1.896741e-10
1.6068797e-10
1.3497341e-10
1.122828e-10
9.2414914e-11
7.5326619e-11
6.068132e-11
4.8301895e-11
3.8027088e-11
2.9475255e-11
2.2583058e-11
1.7026024e-11
1.2643658e-11
9.2377068e-12
6.6268257e-12
4.6843355e-12
3.2430583e-12
2.2260331e-12
1.4948842e-12
1.0046335e-12
6.6766394e-13
4.4405202e-13
2.9292149e-13
1.875313e-13
1.112136e-13
5.5202619e-14
1.7843022e-14
9.3708723e-16
1.0665202e-14
5.534288e-14
1.4484464e-13
2.881505e-13
4.9765682e-13
7.8124528e-13
1.14789e-12
1.6065249e-12
2.1573108e-12
2.8102295e-12
3.5612434e-12
4.4091349e-12
5.358766e-12
6.3928197e-12
7.513577e-12
8.7131645e-12
9.9719091e-12
1.1285763e-11
1.2642989e-11
1.4022158e-11
1.5408204e-11
1.6801613e-11
1.8153948e-11
1.9483406e-11
2.074233e-11
2.1948407e-11
2.3022539e-11
2.4054488e-11
2.4864135e-11
2.5664911e-11
2.6131535e-11
2.667221e-11
2.6669277e-11
2.7004975e-11
2.6351548e-11
2.662494e-11
2.5025377e-11
2.5586435e-11
2.2501868e-11
2.4102955e-11
1.8529726e-11
2.2600467e-11
1.2624999e-11
2.1854678e-11
4.2885524e-12
2.2931491e-11
-7.000262e-12
2.678367e-11
-2.0721052e-11
3.2456455e-11
-3.2695723e-11
2.7739266e-11
-1.4452464e-11
1.0220215e-11
-5.5600338e-12
7.1187905e-12
-2.2746067e-12
6.978414e-12
8.9401426e-13
7.7047535e-12
4.6081337e-12
9.4948316e-12
9.796919e-12
1.0749311e-11
1.4009427e-11
1.7538171e-11
1.8747128e-11
2.6517847e-11
2.4729224e-11
4.2089441e-11
2.966631e-11
6.7176135e-11
5.1104694e-11
1.0882697e-10
6.2271836e-11
1.1579011e-10
1.0985315e-10
1.1712745e-10
1.495508e-10
1.12585e-10
2.3495394e-10
7.0082274e-11
1.776745e-10
2.6297037e-10
2.5401747e-10
6.8840629e-10
4.2827378e-10
2.2406331e-09
-7.6148873e-10
6.6602203e-09
-1.3689857e-08
2.605264e-08
-9.123705e-09
3.8960994e-08
-2.5463688e-08
4.2367922e-08
-3.5490065e-08
3.2140898e-08
3.708174e-10
-1.4190667e-07
1.7151543e-07
-6.9148314e-08
4.2308406e-08
-2.9512023e-09
3.4865423e-10
-2.4373884e-10
2.6476348e-10
-1.8833943e-11
-8.9917905e-12
-2.679118e-12
4.0649551e-12
-6.299948e-13
1.1063215e-12
-2.7444644e-13
-4.3419026e-12
1.9477961e-12
6.471359e-13
-4.9269563e-13
1.0221164e-12
1.3491209e-13
5.0519031e-13
1.5459978e-12
-1.9213375e-13
5.8822788e-12
4.6482252e-12
3.5094964e-12
9.2317272e-12
1.1446922e-11
1.8356712e-11
2.4839223e-11
3.8465155e-11
5.0968466e-11
6.8316954e-11
7.6284721e-11
1.5744949e-10
1.6070558e-10
2.6338399e-10
2.6328298e-10
4.790382e-10
3.2726733e-10
9.0452522e-10
1.5167737e-10
1.9882184e-09
-1.9307259e-09
5.1746397e-09
-1.1997856e-09
3.8546845e-09
1.2318485e-09
3.4645659e-09
2.248925e-09
3.201347e-09
2.5779708e-09
2.9040284e-09
2.5225106e-09
2.5457265e-09
2.2569688e-09
2.1460531e-09
1.9057361e-09
1.7477663e-09
1.5417569e-09
1.3789913e-09
1.2048139e-09
1.0578027e-09
9.1446454e-10
7.9085169e-10
6.7655e-10
5.7770619e-10
4.8910924e-10
4.1252581e-10
3.4554379e-10
2.8799248e-10
2.3829598e-10
1.963706e-10
1.6040341e-10
1.3054083e-10
1.0520362e-10
8.3971006e-11
6.6847731e-11
5.267342e-11
4.1223765e-11
3.2355906e-11
2.5049712e-11
1.9658715e-11
1.5412656e-11
1.2267555e-11
9.9529852e-12
8.2047796e-12
6.9631795e-12
5.9396073e-12
5.1774395e-12
4.4351768e-12
3.7881487e-12
3.1114332e-12
2.4332546e-12
1.7601234e-12
1.1232787e-12
5.7359044e-13
1.7743021e-13
1.0827251e-14
1.5057159e-13
6.7407052e-13
1.6613263e-12
3.1765934e-12
5.3039238e-12
8.1121234e-12
1.1651936e-11
1.5975228e-11
2.113239e-11
2.7116164e-11
3.3979597e-11
4.1693962e-11
5.0239825e-11
5.9636567e-11
6.9767742e-11
8.063532e-11
9.2177327e-11
1.0426028e-10
1.1683878e-10
1.2982547e-10
1.4306976e-10
1.5645805e-10
1.6995071e-10
1.832445e-10
1.9639566e-10
2.0910746e-10
2.2140058e-10
2.3282966e-10
2.4378842e-10
2.5326614e-10
2.6233134e-10
2.6920915e-10
2.7597941e-10
2.7927804e-10
2.8372439e-10
2.8220196e-10
2.8478115e-10
2.764857e-10
2.7867168e-10
2.603883e-10
2.6597005e-10
2.3199372e-10
2.4843605e-10
1.8803523e-10
2.2991028e-10
1.252659e-10
2.1659176e-10
4.0298596e-11
2.1542353e-10
-6.4832912e-11
2.263492e-10
-1.6844968e-10
1.8877526e-10
-9.1599133e-11
7.7887968e-11
-2.8732576e-11
5.5218466e-11
-3.2320768e-12
5.4850915e-11
2.1143472e-11
6.3853843e-11
5.1490865e-11
8.5607226e-11
9.7766872e-11
1.1967779e-10
1.6056786e-10
2.1051549e-10
2.5943337e-10
3.5235848e-10
4.1187649e-10
5.7732842e-10
6.1512563e-10
8.9597898e-10
9.1546079e-10
1.2766202e-09
1.1563159e-09
1.5189166e-09
1.6005995e-09
1.7624586e-09
2.0595994e-09
2.0644028e-09
2.8509918e-09
2.4457264e-09
3.434382e-09
4.3513678e-09
4.8407447e-09
6.9708972e-09
5.2323935e-09
9.6001823e-09
-1.0268786e-08
3.0086822e-09
-9.1726022e-08
3.3040267e-08
-1.0910888e-07
7.7019893e-08
-1.6350751e-07
1.6365218e-07
-1.9246806e-07
1.6639874e-07
-1.4219046e-07
-6.7112075e-07
4.4766651e-07
-3.2506695e-07
1.1947813e-07
-1.3090832e-08
2.8495752e-09
-4.4373486e-10
8.709302e-10
3.3963463e-12
2.7133862e-11
3.5662671e-11
4.9412405e-11
2.5073915e-11
2.6655128e-11
1.7655534e-11
-1.1260501e-12
2.0349486e-11
1.408904e-11
8.6255452e-12
1.3757032e-11
1.036882e-11
1.2065726e-11
1.7637844e-11
1.2986766e-11
4.0454958e-11
4.2272645e-11
4.585244e-11
7.8932197e-11
1.0069125e-10
1.4508022e-10
1.9276314e-10
2.7308413e-10
3.5542321e-10
4.6326545e-10
5.4037459e-10
9.0513301e-10
9.7486695e-10
1.4248925e-09
1.4722766e-09
2.3342233e-09
1.7626469e-09
3.9869258e-09
1.0127728e-09
8.0668307e-09
-7.6368023e-09
1.8873249e-08
-7.2572548e-09
8.2716172e-09
-3.7824896e-09
1.412816e-09
-5.1652213e-09
-3.9862314e-09
-7.8598524e-09
-8.1669229e-09
-1.0496587e-08
-1.1155808e-08
-1.2486546e-08
-1.2904788e-08
-1.3481087e-08
-1.3541832e-08
-1.3550166e-08
-1.3244434e-08
-1.2837668e-08
-1.2239115e-08
-1.1556394e-08
-1.0768517e-08
-9.9354669e-09
-9.0607709e-09
-8.1811282e-09
-7.3074363e-09
-6.4616544e-09
-5.6535249e-09
-4.8957341e-09
-4.1928887e-09
-3.5513925e-09
-2.9721303e-09
-2.4591311e-09
-2.0090505e-09
-1.6176289e-09
-1.2834565e-09
-1.0016212e-09
-7.6650485e-10
-5.7489709e-10
-4.1976655e-10
-2.9760551e-10
-2.0296369e-10
-1.3149029e-10
-7.9266501e-11
-4.2314841e-11
-1.7795887e-11
-2.4331152e-12
5.7534565e-12
9.1654222e-12
9.2503697e-12
7.4791408e-12
4.9210588e-12
2.4260674e-12
6.5112524e-13
8.418524e-14
1.0614882e-12
3.7594097e-12
8.3445741e-12
1.4854135e-11
2.3261728e-11
3.3729073e-11
4.6208438e-11
6.0685789e-11
7.7189393e-11
9.5778932e-11
1.1632344e-10
1.3901608e-10
1.6373718e-10
1.9046531e-10
2.1942122e-10
2.5029644e-10
2.833056e-10
3.1838666e-10
3.5532156e-10
3.9419099e-10
4.3494693e-10
4.7726239e-10
5.2103735e-10
5.6639533e-10
6.1245739e-10
6.597528e-10
7.0730702e-10
7.5550291e-10
8.0272716e-10
8.5080402e-10
8.9579497e-10
9.4213229e-10
9.8262563e-10
1.0258614e-09
1.0580482e-09
1.0979332e-09
1.116142e-09
1.1538803e-09
1.1491205e-09
1.1888791e-09
1.1453426e-09
1.2013105e-09
1.0929363e-09
1.1935061e-09
9.7063708e-10
1.1737631e-09
7.5363581e-10
1.1590147e-09
4.1166929e-10
1.1714673e-09
-6.8493429e-11
1.2127286e-09
-6.2411169e-10
1.0305245e-09
-3.9745613e-10
4.8970773e-10
-6.171451e-11
3.6585295e-10
8.4047435e-11
3.657683e-10
2.1750289e-10
4.1801e-10
3.7434643e-10
5.3300289e-10
5.9760061e-10
7.0237222e-10
8.7999128e-10
1.0861601e-09
1.2767113e-09
1.6177311e-09
1.8036044e-09
2.3503189e-09
2.3773511e-09
3.2658214e-09
3.1818737e-09
4.3571964e-09
3.7787552e-09
4.9483712e-09
5.0679415e-09
5.4472315e-09
6.2381338e-09
5.8830862e-09
8.1197161e-09
5.5494041e-09
6.7630157e-09
6.3352215e-09
2.1401371e-09
-7.798761e-10
-2.2385621e-08
-3.3444509e-08
-1.2166435e-07
-1.070983e-07
-3.5903052e-07
-1.5824768e-08
-3.8909015e-07
7.7671928e-08
-6.4142806e-07
3.5753169e-07
-8.1673934e-07
4.8653234e-07
-6.0574316e-07
-1.9761753e-06
9.4911067e-07
-1.0122322e-06
2.0434894e-07
-8.119851e-08
1.3851181e-08
-5.7687097e-10
2.0471151e-09
-8.3111193e-11
5.9535119e-11
1.2214167e-10
1.7542165e-10
1.0188289e-10
1.0678216e-10
7.851789e-11
1.7651824e-11
8.6567054e-11
6.7613119e-11
5.112815e-11
6.925266e-11
6.1533828e-11
7.2032761e-11
9.7348935e-11
9.112923e-11
1.9457172e-10
2.1884297e-10
2.5192806e-10
3.8632562e-10
4.8903217e-10
6.6696997e-10
8.6001765e-10
1.1509485e-09
1.4383362e-09
1.7847285e-09
1.9828519e-09
3.0045994e-09
2.9489219e-09
3.9048063e-09
3.3552487e-09
5.1147031e-09
2.034931e-09
7.5048749e-09
-3.9258853e-09
1.5958553e-08
-3.7003188e-08
4.1000741e-08
-4.8052867e-08
-1.3158922e-08
-5.4055059e-08
-4.4904921e-08
-6.5925317e-08
-6.4432286e-08
-7.4983818e-08
-7.5009867e-08
-7.9413601e-08
-7.8666184e-08
-7.9066087e-08
-7.6840821e-08
-7.4781245e-08
-7.1334954e-08
-6.7759944e-08
-6.3483867e-08
-5.909729e-08
-5.4415607e-08
-4.9738432e-08
-4.5033357e-08
-4.0454018e-08
-3.6012893e-08
-3.1796191e-08
-2.781968e-08
-2.4125665e-08
-2.0726312e-08
-1.763308e-08
-1.484886e-08
-1.2369617e-08
-1.0182749e-08
-8.2797979e-09
-6.6425649e-09
-5.2475159e-09
-4.0782142e-09
-3.1108949e-09
-2.3208644e-09
-1.6907577e-09
-1.1942391e-09
-8.1383233e-10
-5.2913085e-10
-3.2301327e-10
-1.8003455e-10
-8.5437193e-11
-2.8009759e-11
3.4089369e-12
1.6436547e-11
1.8601751e-11
1.4767168e-11
8.9707875e-12
3.7846798e-12
7.3925981e-13
4.4326644e-13
2.7287139e-12
6.6883046e-12
1.1184925e-11
1.5076005e-11
1.6068966e-11
1.347974e-11
5.3102217e-12
-9.6254274e-12
-3.2674456e-11
-6.4655794e-11
-1.0601445e-10
-1.5763968e-10
-2.1893779e-10
-2.9016592e-10
-3.7084371e-10
-4.5938753e-10
-5.5593315e-10
-6.5828047e-10
-7.6499674e-10
-8.7503869e-10
-9.8601268e-10
-1.0958507e-09
-1.203274e-09
-1.305878e-09
-1.4005874e-09
-1.4876011e-09
-1.5624584e-09
-1.6250948e-09
-1.671551e-09
-1.7040606e-09
-1.7137491e-09
-1.7106945e-09
-1.6775862e-09
-1.6352069e-09
-1.5530118e-09
-1.4735727e-09
-1.3332507e-09
-1.2262626e-09
-1.0156358e-09
-9.0207041e-10
-6.007532e-10
-5.3300408e-10
-9.1990918e-11
-1.5718764e-10
5.1740383e-10
1.4126183e-10
1.2388439e-09
2.3825077e-10
2.089422e-09
-4.6988214e-11
3.0877086e-09
-9.015887e-10
4.161043e-09
-2.3526901e-09
4.300733e-09
-1.4811066e-09
2.2338868e-09
-1.1882999e-10
1.5669702e-09
3.7175703e-10
1.3788782e-09
7.2145396e-10
1.3422486e-09
1.0426755e-09
1.4266305e-09
1.4152317e-09
1.4370611e-09
1.5672414e-09
1.6259475e-09
1.4293148e-09
1.4576297e-09
7.1606206e-10
7.5088265e-10
-1.1470708e-09
-6.9816144e-10
-3.0088667e-09
-1.5542021e-09
-5.3604073e-09
-3.9548743e-09
-5.7255267e-09
-6.8002593e-09
-6.9692011e-09
-1.0853356e-08
-8.2018101e-09
-2.1753065e-08
-2.7905417e-08
-4.1446507e-08
-6.8026458e-08
-9.3791349e-08
-1.6419348e-07
-1.9200633e-07
-3.5298533e-07
-2.1275014e-07
-5.8064695e-07
2.2773276e-07
-4.7701621e-07
4.2313648e-07
-1.2710362e-06
8.0996242e-07
-2.2387267e-06
1.0947477e-06
-8.0654173e-07
-3.3624893e-06
2.2050873e-06
-1.8284088e-06
3.978529e-07
-3.052519e-07
3.8620562e-08
-1.138682e-09
4.1378991e-09
-7.587685e-10
-1.6753517e-10
2.0359991e-10
4.5455934e-10
3.0619871e-10
3.4229637e-10
2.8064421e-10
1.1795553e-10
3.1664685e-10
2.707962e-10
2.3008824e-10
2.9131079e-10
2.7917409e-10
3.2473657e-10
4.1715412e-10
4.2210536e-10
7.4443895e-10
8.4136982e-10
9.4879358e-10
1.328724e-09
1.5883989e-09
1.9961936e-09
2.3466143e-09
2.8263916e-09
3.0697276e-09
3.1550614e-09
2.3673192e-09
3.2107602e-09
3.4890338e-10
-6.3971811e-10
-6.5605908e-09
-7.0992939e-09
-2.1343009e-08
-1.3549515e-08
-5.1390391e-08
-7.1253672e-09
-1.5062132e-07
4.6345682e-08
-1.7171546e-07
-8.560359e-08
-1.6600093e-07
-1.3118611e-07
-1.6021866e-07
-1.4048627e-07
-1.4647764e-07
-1.3161383e-07
-1.2724903e-07
-1.1375362e-07
-1.048567e-07
-9.2730127e-08
-8.2900032e-08
-7.2239439e-08
-6.3053054e-08
-5.4063986e-08
-4.6206813e-08
-3.8950279e-08
-3.2645395e-08
-2.7026696e-08
-2.2201775e-08
-1.8023657e-08
-1.448955e-08
-1.149799e-08
-9.0077478e-09
-6.9455561e-09
-5.2604167e-09
-3.8984808e-09
-2.8176502e-09
-1.9624096e-09
-1.2952802e-09
-7.9211236e-10
-4.1686295e-10
-1.5099428e-10
2.9203634e-11
1.4556523e-10
2.0620891e-10
2.3178238e-10
2.2790164e-10
2.0636962e-10
1.7412178e-10
1.3685062e-10
1.0025811e-10
6.6704908e-11
3.9783379e-11
1.9563088e-11
7.0542803e-12
8.5845139e-13
-6.747713e-13
-3.2463157e-13
-1.654555e-12
-8.9248193e-12
-2.7055274e-11
-6.1951375e-11
-1.1587142e-10
-1.9537319e-10
-3.0685535e-10
-4.5420899e-10
-6.4315804e-10
-8.7755282e-10
-1.1618571e-09
-1.4989933e-09
-1.8911123e-09
-2.3415716e-09
-2.8494834e-09
-3.4162271e-09
-4.0412004e-09
-4.7208699e-09
-5.4558407e-09
-6.2400432e-09
-7.0693819e-09
-7.9406176e-09
-8.8459252e-09
-9.778061e-09
-1.0731835e-08
-1.169785e-08
-1.2665209e-08
-1.3630462e-08
-1.4577116e-08
-1.5500437e-08
-1.6384895e-08
-1.7228954e-08
-1.8003485e-08
-1.8726909e-08
-1.9346305e-08
-1.9906203e-08
-2.0318143e-08
-2.0683097e-08
-2.0824088e-08
-2.0975499e-08
-2.0765535e-08
-2.0707127e-08
-2.0021793e-08
-1.9830182e-08
-1.8497756e-08
-1.8362624e-08
-1.6055005e-08
-1.6409321e-08
-1.2525311e-08
-1.4215611e-08
-7.7310894e-09
-1.2254737e-08
-1.4973366e-09
-1.1199129e-08
6.0421892e-09
-1.1693272e-08
1.1845397e-08
-7.1335597e-09
5.7210349e-09
-2.6317114e-09
2.7006708e-09
-1.6918334e-09
1.0324689e-09
-1.6391218e-09
-4.3338427e-10
-2.1610944e-09
-2.0072689e-09
-3.2752505e-09
-4.774975e-09
-6.3750542e-09
-8.6450838e-09
-1.2096039e-08
-1.5502209e-08
-2.1424537e-08
-2.5924394e-08
-3.5813667e-08
-4.0139316e-08
-5.0886088e-08
-5.2326121e-08
-6.7406668e-08
-6.9014459e-08
-7.8255208e-08
-8.5575724e-08
-9.0561079e-08
-1.0430141e-07
-1.0326118e-07
-1.4061264e-07
-1.5603992e-07
-1.8434381e-07
-2.2910483e-07
-2.4972673e-07
-3.2033924e-07
-2.4034359e-07
-3.3446366e-07
1.5048259e-07
-2.921982e-07
1.0778602e-06
-4.6529376e-08
1.4749678e-06
-1.3940152e-06
2.2007915e-06
-3.7988807e-06
2.7888169e-06
-1.2606153e-07
-4.0372167e-06
4.4738356e-06
-2.1510038e-06
1.0962137e-06
-5.8339884e-07
5.4337448e-08
-7.4884411e-09
6.6648252e-09
-3.0594523e-09
-1.8540514e-09
-4.9779042e-10
5.3571057e-10
4.4971102e-10
6.9194777e-10
6.5787776e-10
3.2401651e-10
8.7118956e-10
7.959652e-10
7.1751457e-10
9.0250542e-10
8.8860344e-10
1.0144279e-09
1.2481019e-09
1.2232181e-09
1.9744114e-09
2.056026e-09
2.0386457e-09
2.5299458e-09
2.4718394e-09
2.422856e-09
1.7201117e-09
6.7779124e-10
-1.7637457e-09
-5.596174e-09
-1.2660145e-08
-1.6871931e-08
-3.067349e-08
-4.0434406e-08
-6.1336896e-08
-6.9013354e-08
-1.0639848e-07
-9.2838322e-08
-1.7845109e-07
-8.0167424e-08
-3.7049559e-07
6.747695e-08
-2.9136094e-07
-6.3222509e-08
-1.5281274e-07
-4.4312958e-08
-5.7386258e-08
4.0051998e-09
1.3973732e-08
5.0872095e-08
6.4213173e-08
8.6501883e-08
9.6360393e-08
1.073917e-07
1.1191829e-07
1.1540305e-07
1.1502634e-07
1.1324421e-07
1.091627e-07
1.0398332e-07
9.7529481e-08
9.0453029e-08
8.2830507e-08
7.5039534e-08
6.7206095e-08
5.9554167e-08
5.2190092e-08
4.5241681e-08
3.8776285e-08
3.2853222e-08
2.7483676e-08
2.2703795e-08
1.849638e-08
1.4840503e-08
1.1715343e-08
9.0763397e-09
6.8858066e-09
5.1024494e-09
3.671551e-09
2.5558601e-09
1.7035184e-09
1.0746327e-09
6.2817899e-10
3.271467e-10
1.3924768e-10
3.4046645e-11
-1.2662677e-11
-2.3590398e-11
-1.6335508e-11
-6.3259393e-12
-5.7454048e-12
-2.4475519e-11
-7.0318806e-11
-1.4923261e-10
-2.6809032e-10
-4.2315e-10
-6.1408099e-10
-8.5621226e-10
-1.1397212e-09
-1.4749224e-09
-1.8620229e-09
-2.3029939e-09
-2.802128e-09
-3.3616454e-09
-3.9841521e-09
-4.676376e-09
-5.4382164e-09
-6.275997e-09
-7.1938446e-09
-8.1907018e-09
-9.2757844e-09
-1.0446332e-08
-1.1704776e-08
-1.3055211e-08
-1.4494805e-08
-1.6021417e-08
-1.7637129e-08
-1.9336425e-08
-2.1110375e-08
-2.296403e-08
-2.487673e-08
-2.6850313e-08
-2.8864284e-08
-3.0925351e-08
-3.2982851e-08
-3.5081146e-08
-3.7118294e-08
-3.9188932e-08
-4.1113025e-08
-4.3097848e-08
-4.4774165e-08
-4.6623989e-08
-4.7859163e-08
-4.9566007e-08
-5.0000033e-08
-5.1588175e-08
-5.0790939e-08
-5.260316e-08
-4.9671159e-08
-5.2493418e-08
-4.579293e-08
-5.1293249e-08
-3.7989823e-08
-4.9382349e-08
-2.4675807e-08
-4.7487151e-08
-4.2381126e-09
-4.6532145e-08
1.8819661e-08
-3.33914e-08
3.841555e-09
-1.9549616e-08
-4.6622265e-09
-1.6816318e-08
-9.9561468e-09
-1.7457002e-08
-1.5099818e-08
-2.0284449e-08
-2.0961796e-08
-2.525012e-08
-2.9963068e-08
-3.4779681e-08
-4.102833e-08
-4.9556256e-08
-5.7490053e-08
-6.9979238e-08
-7.8597028e-08
-9.7499321e-08
-1.0405555e-07
-1.2489733e-07
-1.2742774e-07
-1.5890554e-07
-1.6249586e-07
-1.8131178e-07
-1.9525644e-07
-2.0355708e-07
-2.2646006e-07
-2.1638738e-07
-2.7021428e-07
-2.544987e-07
-2.4751731e-07
-2.4454583e-07
-1.6216882e-07
-1.2693108e-07
1.7929454e-07
1.7341488e-07
9.2165299e-07
2.0693887e-07
1.9475252e-06
3.0871455e-07
2.501524e-06
-1.3022831e-06
4.2428116e-06
-4.7986264e-06
5.8470998e-06
4.0948677e-07
-4.9606111e-06
6.6308062e-06
-2.384751e-06
2.2012292e-06
-5.4932783e-07
4.8419815e-08
-5.1835419e-08
1.1437864e-08
-5.7798825e-09
-6.661776e-09
-4.3095219e-09
-1.5207013e-09
-1.046002e-09
-3.8033654e-11
2.9319134e-10
-1.9565045e-10
1.2517587e-09
1.2143645e-09
1.1026892e-09
1.5583338e-09
1.4877831e-09
1.6422077e-09
1.9038546e-09
1.3693203e-09
2.3644589e-09
1.4017804e-09
-1.9973282e-10
-1.2843247e-09
-4.1373079e-09
-7.8059006e-09
-1.3750827e-08
-2.1249528e-08
-3.2392198e-08
-4.6567131e-08
-6.6613651e-08
-7.8238629e-08