/*--------------------------------*- C++ -*----------------------------------*\
| =========                 |                                                 |
| \\      /  F ield         | OpenFOAM: The Open Source CFD Toolbox           |
|  \\    /   O peration     | Version:  2.4.0                                 |
|   \\  /    A nd           | Web:      www.OpenFOAM.org                      |
|    \\/     M anipulation  |                                                 |
\*---------------------------------------------------------------------------*/
FoamFile
{
    version     2.0;
    format      ascii;
    class       volSymmTensorField;
    location    "8247";
    object      RB;
}
// * * * * * * * * * * * * * * * * * * * * * * * * * * * * * * * * * * * * * //

dimensions      [0 2 -2 0 0 0 0];

internalField   nonuniform List<symmTensor> 
32000
(
(1.1845197e-07 -1.088208e-10 1.8921092e-31 1.1845016e-07 -2.2137625e-29 1.1845105e-07)
(1.3115414e-07 -1.0132923e-10 -6.3008212e-26 1.3115444e-07 6.70983e-29 1.3115421e-07)
(1.1688411e-07 -1.2919102e-10 -8.0354552e-26 1.1689839e-07 2.0717436e-27 1.1689131e-07)
(9.5492013e-08 -8.4138066e-11 -2.633363e-26 9.5518143e-08 1.819428e-27 9.5505053e-08)
(6.2281375e-08 -4.397587e-11 -1.4076174e-26 6.2308166e-08 1.9151768e-27 6.2294783e-08)
(3.2247684e-08 -8.3944329e-12 -2.6973935e-27 3.2256182e-08 9.7149778e-28 3.2251914e-08)
(1.0241912e-08 5.2320696e-13 2.1877932e-28 1.0240976e-08 -2.3399417e-30 1.0241435e-08)
(2.9086e-09 6.0137769e-13 -6.741114e-30 2.9071027e-09 -1.5149013e-29 2.9078485e-09)
(4.0586718e-09 6.839746e-13 3.2364285e-28 4.0563015e-09 -1.5285961e-28 4.0574839e-09)
(5.7410379e-09 7.1162272e-13 3.7077982e-28 5.737731e-09 -2.7283628e-28 5.7393811e-09)
(5.2856638e-09 4.6048102e-13 1.4008236e-29 5.2828774e-09 2.0179646e-29 5.284268e-09)
(4.5895261e-09 2.858609e-13 9.2281355e-30 4.5873348e-09 1.2570743e-29 4.5884286e-09)
(3.9308582e-09 1.831276e-13 4.3481133e-29 3.9291309e-09 4.4243328e-29 3.9299933e-09)
(3.4438945e-09 1.2721514e-13 -1.5436585e-29 3.4424775e-09 -1.929431e-29 3.443185e-09)
(3.0799419e-09 9.6170692e-14 -1.1291435e-29 3.0787443e-09 -1.3451493e-29 3.0793423e-09)
(2.7485408e-09 7.8200506e-14 1.3217671e-29 2.7475268e-09 2.0397451e-29 2.7480332e-09)
(2.4692258e-09 6.9157351e-14 1.9176397e-28 2.468361e-09 -9.7129986e-29 2.4687929e-09)
(2.225271e-09 6.5473278e-14 1.4802205e-28 2.2245224e-09 -1.0646681e-28 2.2248963e-09)
(2.0527219e-09 6.4243183e-14 8.2610472e-29 2.052048e-09 -2.5875767e-29 2.0523847e-09)
(1.9034182e-09 6.3048867e-14 7.3757995e-29 1.9028033e-09 -2.5876112e-29 1.9031105e-09)
(1.790087e-09 6.2716014e-14 2.6899769e-29 1.789512e-09 3.3735216e-29 1.7897993e-09)
(1.7177963e-09 6.3813564e-14 -1.7369562e-29 1.7172408e-09 -2.1169412e-29 1.7175184e-09)
(1.6877708e-09 6.6717308e-14 2.5302775e-30 1.6872141e-09 5.8609069e-30 1.6874923e-09)
(1.7031868e-09 7.2139272e-14 9.0259205e-30 1.7026054e-09 1.3887709e-29 1.702896e-09)
(1.7572322e-09 8.0120208e-14 1.3251872e-29 1.7566031e-09 2.1106025e-29 1.7569175e-09)
(1.8619896e-09 9.1825435e-14 -1.1912766e-29 1.8612823e-09 -1.5498993e-29 1.8616358e-09)
(2.0167069e-09 1.0737334e-13 -2.6179627e-29 2.0158907e-09 -3.9423379e-29 2.0162986e-09)
(2.204314e-09 1.2725942e-13 -3.4693129e-29 2.2033674e-09 -4.4490215e-29 2.2038405e-09)
(2.4072524e-09 1.5323138e-13 1.318321e-29 2.4061594e-09 1.0988796e-29 2.4067057e-09)
(2.6465958e-09 1.8888848e-13 -1.3594052e-29 2.6453289e-09 -1.1622904e-29 2.6459621e-09)
(2.9315009e-09 2.3772359e-13 -1.6332291e-29 2.9300284e-09 -1.3693524e-29 2.9307643e-09)
(3.2662119e-09 3.0392454e-13 2.299238e-29 3.2645013e-09 2.098742e-29 3.2653561e-09)
(3.6529226e-09 3.9245349e-13 1.6652475e-29 3.6509443e-09 2.6760526e-29 3.6519329e-09)
(4.0922783e-09 5.0889522e-13 -2.1077404e-30 4.0900113e-09 1.1909389e-30 4.0911441e-09)
(4.5831634e-09 6.5971195e-13 3.6625222e-28 4.5806007e-09 -3.1519977e-28 4.5818813e-09)
(5.1276663e-09 8.5355194e-13 4.4571847e-28 5.1248112e-09 -3.4112281e-28 5.126238e-09)
(5.7422052e-09 1.1036784e-12 5.5535723e-28 5.7390503e-09 -2.2042783e-28 5.740627e-09)
(6.4414406e-09 1.4148929e-12 6.3733054e-28 6.4379905e-09 -3.058992e-28 6.4397148e-09)
(7.2125627e-09 1.7853146e-12 4.836234e-29 7.2088668e-09 9.178248e-29 7.210714e-09)
(8.0409788e-09 2.2088268e-12 -3.2829616e-29 8.0371319e-09 -5.4659693e-29 8.0390547e-09)
(8.9158154e-09 2.6801446e-12 5.8975215e-30 8.9119443e-09 2.2437023e-29 8.9138793e-09)
(9.8129276e-09 3.1651339e-12 -3.4165716e-30 9.8092199e-09 3.1804896e-29 9.8110733e-09)
(1.0706374e-08 3.6640327e-12 -3.3033007e-30 1.0703016e-08 -2.7915541e-29 1.0704695e-08)
(1.1544989e-08 4.0835981e-12 5.0280435e-30 1.154223e-08 -8.3517154e-30 1.1543609e-08)
(1.2302421e-08 4.5307683e-12 -1.1985703e-29 1.2300407e-08 -3.9396086e-29 1.2301414e-08)
(1.2950001e-08 4.8198134e-12 3.437855e-27 1.2948932e-08 -1.9010029e-28 1.2949466e-08)
(1.4231963e-08 6.2573906e-12 4.4509715e-27 1.4231756e-08 -3.5851748e-29 1.4231861e-08)
(1.8342207e-08 9.7977731e-12 -3.0939023e-32 1.8342156e-08 -6.1296238e-33 1.8342183e-08)
(2.1968726e-08 1.2806172e-11 -1.5607986e-33 2.1968685e-08 4.2464236e-32 2.1968707e-08)
(2.4883604e-08 1.5580683e-11 1.3270999e-33 2.4883568e-08 -5.2797392e-32 2.4883588e-08)
(2.7647907e-08 1.8071696e-11 -1.4790037e-33 2.7647877e-08 2.2001651e-32 2.7647894e-08)
(3.0140527e-08 2.0413731e-11 1.3501708e-33 3.01405e-08 2.4841866e-32 3.0140515e-08)
(3.2508466e-08 2.2536768e-11 -1.9159838e-33 3.2508444e-08 -4.5997439e-32 3.2508457e-08)
(3.4697316e-08 2.4501797e-11 2.7917467e-33 3.4697298e-08 1.6080477e-32 3.4697309e-08)
(3.6765615e-08 2.6268097e-11 -1.7822756e-34 3.67656e-08 1.4120691e-33 3.676561e-08)
(3.8691625e-08 2.7866248e-11 -9.1470487e-35 3.8691613e-08 1.0942832e-32 3.8691621e-08)
(4.0498459e-08 2.9274066e-11 2.0795885e-26 4.0498451e-08 -2.2145338e-30 4.0498457e-08)
(4.218052e-08 3.0510525e-11 2.1691366e-26 4.2180516e-08 -1.57089e-30 4.218052e-08)
(4.374647e-08 3.1561062e-11 -1.1205673e-26 4.3746469e-08 4.593993e-31 4.3746472e-08)
(4.5192851e-08 3.2434034e-11 -1.1524286e-26 4.5192854e-08 2.0726116e-31 4.5192855e-08)
(4.6524207e-08 3.3126056e-11 -2.3533089e-26 4.6524213e-08 -2.0955536e-31 4.6524213e-08)
(4.7740649e-08 3.3645267e-11 -2.3919088e-26 4.7740658e-08 -8.3563451e-31 4.7740656e-08)
(4.8845633e-08 3.3994124e-11 3.4210639e-35 4.8845645e-08 4.5750687e-33 4.8845641e-08)
(4.9840666e-08 3.4181036e-11 -4.4297606e-36 4.9840681e-08 -6.1014348e-33 4.9840675e-08)
(5.0728804e-08 3.4212015e-11 -1.7604529e-33 5.0728822e-08 1.0506041e-32 5.0728815e-08)
(5.151327e-08 3.4096866e-11 3.5115332e-33 5.151329e-08 -9.1342728e-33 5.1513282e-08)
(5.2196901e-08 3.3843615e-11 -3.3298967e-33 5.2196924e-08 -1.0878598e-33 5.2196915e-08)
(5.2783862e-08 3.3463053e-11 1.1881904e-26 5.2783887e-08 1.9135994e-30 5.2783876e-08)
(5.3277603e-08 3.2964796e-11 2.3426986e-26 5.327763e-08 4.2491112e-30 5.3277618e-08)
(5.368195e-08 3.2359536e-11 1.1506571e-26 5.3681979e-08 2.2973052e-30 5.3681966e-08)
(5.4001837e-08 3.1658178e-11 1.5581168e-33 5.4001867e-08 -1.1947381e-32 5.4001853e-08)
(5.4242836e-08 3.0872231e-11 -5.2014346e-36 5.4242867e-08 1.0769072e-32 5.4242853e-08)
(5.4409876e-08 3.0012172e-11 1.4691433e-33 5.4409909e-08 -9.8135824e-33 5.4409893e-08)
(5.4506686e-08 2.9087661e-11 -1.4858832e-33 5.450672e-08 5.6031302e-33 5.4506704e-08)
(5.4531036e-08 2.8104764e-11 -2.1158238e-36 5.4531071e-08 -4.1331968e-33 5.4531055e-08)
(5.4486369e-08 2.7072416e-11 3.3706308e-35 5.4486405e-08 1.9407373e-34 5.4486388e-08)
(5.4384228e-08 2.6003755e-11 -9.2340424e-27 5.4384264e-08 -3.0906182e-30 5.4384247e-08)
(5.4246932e-08 2.4915812e-11 -8.8514787e-27 5.4246968e-08 -3.1415215e-30 5.4246951e-08)
(5.4056805e-08 2.3804649e-11 1.1942611e-33 5.4056841e-08 2.8497844e-34 5.4056823e-08)
(5.3815778e-08 2.2676747e-11 -1.0891269e-33 5.3815815e-08 1.4590117e-33 5.3815797e-08)
(5.353419e-08 2.1541737e-11 1.0411053e-33 5.3534227e-08 -1.311407e-33 5.3534209e-08)
(5.3214748e-08 2.0404786e-11 7.2461573e-27 5.3214785e-08 3.2149955e-30 5.3214767e-08)
(5.2860904e-08 1.927144e-11 6.8459707e-27 5.2860941e-08 3.2162945e-30 5.2860923e-08)
(5.2476229e-08 1.8146455e-11 -4.6115218e-34 5.2476265e-08 5.3799744e-34 5.2476247e-08)
(5.2063649e-08 1.7033787e-11 3.7997933e-34 5.2063685e-08 1.3432468e-33 5.2063667e-08)
(5.1626244e-08 1.593737e-11 1.6688831e-35 5.1626279e-08 -4.4913774e-33 5.1626261e-08)
(5.116665e-08 1.4860294e-11 4.270162e-34 5.1166684e-08 -1.1545398e-33 5.1166667e-08)
(5.0687221e-08 1.380525e-11 -3.9260582e-34 5.0687255e-08 2.5659402e-33 5.0687237e-08)
(5.0193413e-08 1.2775184e-11 -2.1817069e-35 5.0193446e-08 2.5451078e-33 5.0193429e-08)
(4.9681491e-08 1.177067e-11 2.1045847e-35 4.9681523e-08 -8.0631448e-33 4.9681507e-08)
(4.9157879e-08 1.0794227e-11 9.0999071e-35 4.9157911e-08 7.3716743e-33 4.9157895e-08)
(4.8622857e-08 9.8469238e-12 3.5001575e-27 4.8622888e-08 2.827456e-30 4.8622872e-08)
(4.8078318e-08 8.9296078e-12 3.1745694e-27 4.8078348e-08 2.7727521e-30 4.8078333e-08)
(4.7525393e-08 8.0429108e-12 -1.2642568e-34 4.7525423e-08 -4.3794118e-33 4.7525407e-08)
(4.6965502e-08 7.1876171e-12 6.2574681e-35 4.696553e-08 4.717971e-34 4.6965515e-08)
(4.6399438e-08 6.3634932e-12 -7.4669671e-36 4.6399466e-08 3.8012207e-34 4.6399451e-08)
(4.5827096e-08 5.5705996e-12 1.9802023e-27 4.5827123e-08 2.5006305e-30 4.5827109e-08)
(4.5248476e-08 4.808917e-12 1.7095435e-27 4.5248502e-08 2.4313663e-30 4.5248488e-08)
(4.4662921e-08 4.0780832e-12 -6.7040897e-36 4.4662946e-08 1.4892191e-33 4.4662933e-08)
(4.4070584e-08 3.3784248e-12 -1.2311041e-35 4.4070608e-08 -1.4455946e-34 4.4070595e-08)
(4.3474207e-08 2.7111104e-12 -4.5948563e-36 4.347423e-08 3.0617319e-34 4.3474218e-08)
(4.2878131e-08 2.0769459e-12 2.3471841e-35 4.2878154e-08 1.5316275e-34 4.2878142e-08)
(4.2285773e-08 1.4758857e-12 -5.2467255e-28 4.2285795e-08 -2.0530508e-30 4.2285783e-08)
(4.1699082e-08 9.0738443e-13 -3.2255356e-28 4.1699103e-08 -1.9739844e-30 4.1699092e-08)
(4.1118843e-08 3.7018201e-13 3.2315476e-36 4.1118863e-08 7.4315979e-34 4.1118853e-08)
(4.0544834e-08 -1.3699314e-13 -1.073655e-35 4.0544853e-08 3.677278e-33 4.0544843e-08)
(3.9976383e-08 -6.1549882e-13 -2.1861959e-28 3.9976401e-08 1.7486282e-30 3.9976391e-08)
(3.9412989e-08 -1.0666144e-12 3.6757136e-31 3.9413007e-08 -1.4672606e-33 3.9412997e-08)
(3.885415e-08 -1.4913012e-12 5.3009535e-28 3.8854167e-08 -1.6278339e-30 3.8854158e-08)
(3.8299706e-08 -1.8902249e-12 1.0215341e-34 3.8299723e-08 1.079468e-32 3.8299714e-08)
(3.774964e-08 -2.2643117e-12 4.3805677e-35 3.7749656e-08 -7.7105846e-33 3.7749647e-08)
(3.7203661e-08 -2.6143142e-12 -9.4443718e-35 3.7203676e-08 1.0693168e-32 3.7203668e-08)
(3.6661739e-08 -2.940906e-12 -1.9552073e-35 3.6661753e-08 2.6191266e-33 3.6661745e-08)
(3.6123724e-08 -3.2448902e-12 -1.5408097e-34 3.6123737e-08 -6.5507631e-33 3.612373e-08)
(3.5589378e-08 -3.5268246e-12 1.7395214e-34 3.5589391e-08 -9.5837588e-33 3.5589384e-08)
(3.5058668e-08 -3.7874314e-12 9.492013e-35 3.5058681e-08 6.0009815e-33 3.5058674e-08)
(3.4531343e-08 -4.0274083e-12 -1.928558e-34 3.4531354e-08 1.6296503e-33 3.4531348e-08)
(3.4007084e-08 -4.2471922e-12 -8.6479539e-35 3.4007095e-08 -1.009472e-32 3.4007089e-08)
(3.3485825e-08 -4.4474604e-12 2.9039308e-34 3.3485835e-08 -4.0893048e-33 3.3485829e-08)
(3.2967207e-08 -4.6287794e-12 -1.8507746e-35 3.2967217e-08 2.8920304e-34 3.2967211e-08)
(3.2450912e-08 -4.7915409e-12 1.7021754e-27 3.2450921e-08 -9.0726174e-31 3.2450916e-08)
(3.1936751e-08 -4.9362929e-12 1.752946e-27 3.193676e-08 -8.8800772e-31 3.1936755e-08)
(3.1424308e-08 -5.0635309e-12 -1.7988328e-27 3.1424317e-08 8.4612423e-31 3.1424312e-08)
(3.0913193e-08 -5.1735332e-12 -1.8371597e-27 3.0913201e-08 7.667605e-31 3.0913197e-08)
(3.0403114e-08 -5.2667727e-12 -2.5226787e-34 3.0403121e-08 4.6524187e-33 3.0403117e-08)
(2.989359e-08 -5.3436003e-12 1.8983807e-27 2.9893596e-08 -6.7732947e-31 2.9893593e-08)
(2.9384119e-08 -5.4042555e-12 1.9190405e-27 2.9384125e-08 -6.3263193e-31 2.9384121e-08)
(2.8874321e-08 -5.4490255e-12 -3.8733952e-27 2.8874327e-08 1.1672215e-30 2.8874323e-08)
(2.8363568e-08 -5.4782419e-12 -3.8922191e-27 2.8363574e-08 1.0679417e-30 2.8363571e-08)
(2.7851319e-08 -5.4919191e-12 -1.7093719e-34 2.7851323e-08 -1.2400715e-33 2.7851321e-08)
(2.7336927e-08 -5.4903906e-12 1.9522875e-27 2.7336931e-08 -4.5320411e-31 2.7336929e-08)
(2.6819769e-08 -5.4736184e-12 1.9452463e-27 2.6819773e-08 -3.9485621e-31 2.6819771e-08)
(2.629893e-08 -5.4418403e-12 -7.97146e-35 2.6298933e-08 -1.1070947e-32 2.6298931e-08)
(2.5773852e-08 -5.3947959e-12 3.3722542e-34 2.5773854e-08 3.7673874e-33 2.5773853e-08)
(2.5243247e-08 -5.3329011e-12 6.2491167e-28 2.5243249e-08 2.1961915e-29 2.5243248e-08)
(2.4706609e-08 -5.2554197e-12 2.487677e-27 2.4706611e-08 3.4875218e-26 2.470661e-08)
(2.4162109e-08 -5.1631317e-12 1.2360895e-27 2.416211e-08 3.4432476e-26 2.4162109e-08)
(2.3609571e-08 -5.0546017e-12 -1.1920243e-27 2.3609572e-08 -4.4862346e-29 2.3609571e-08)
(2.3046454e-08 -4.9316019e-12 -5.9387763e-28 2.3046454e-08 -3.3466466e-26 2.3046454e-08)
(2.2473078e-08 -4.7914546e-12 5.7287692e-28 2.2473078e-08 -3.2943475e-26 2.2473078e-08)
(2.1883931e-08 -4.6368644e-12 5.6334052e-28 2.188393e-08 2.25892e-29 2.188393e-08)
(2.12809e-08 -4.4620935e-12 5.7288465e-34 2.1280899e-08 1.4930225e-32 2.1280899e-08)
(2.0655012e-08 -4.2732272e-12 -6.1294288e-36 2.065501e-08 4.3636144e-33 2.0655011e-08)
(2.0013386e-08 -4.0601105e-12 -9.7956916e-35 2.0013384e-08 -1.0178538e-32 2.0013385e-08)
(1.9337831e-08 -3.8355811e-12 -7.1046256e-34 1.9337828e-08 4.6778911e-33 1.9337829e-08)
(1.8646195e-08 -3.5801275e-12 4.1353892e-34 1.8646191e-08 -1.4077034e-32 1.8646193e-08)
(1.7907281e-08 -3.3201764e-12 -7.1036789e-36 1.7907276e-08 2.0231621e-32 1.7907278e-08)
(1.7151732e-08 -3.0169161e-12 5.4614877e-34 1.7151727e-08 -1.5673687e-32 1.7151729e-08)
(1.6316499e-08 -2.7216216e-12 -2.6707733e-34 1.6316492e-08 2.4251704e-32 1.6316495e-08)
(1.5467389e-08 -2.3602691e-12 -2.6313111e-34 1.5467382e-08 -7.2536313e-33 1.5467385e-08)
(1.4473175e-08 -2.0304271e-12 2.3137977e-35 1.4473166e-08 -3.7892713e-33 1.447317e-08)
(1.3489263e-08 -1.5964911e-12 5.0076498e-35 1.3489254e-08 1.3458059e-33 1.3489259e-08)
(1.2096565e-08 -1.2266362e-12 2.1015024e-32 1.2096553e-08 -1.9762614e-32 1.2096559e-08)
(1.0527368e-08 -6.7013063e-13 1.3203785e-30 1.0527338e-08 1.0614407e-30 1.0527353e-08)
(1.0707207e-08 -3.8118774e-13 -4.3532377e-30 1.070712e-08 7.7585486e-29 1.0707163e-08)
(1.1574171e-08 -4.6974082e-13 -1.9889367e-29 1.1573963e-08 1.6397945e-28 1.1574068e-08)
(1.2451158e-08 -5.2336589e-13 1.6382161e-29 1.2450806e-08 -9.8639418e-29 1.2450983e-08)
(1.3319851e-08 -6.9637066e-13 -3.2371662e-29 1.3319217e-08 1.3886554e-28 1.3319535e-08)
(1.413696e-08 -8.4097167e-13 -1.9962786e-29 1.4135979e-08 6.4739839e-29 1.4136471e-08)
(1.4911681e-08 -1.0222383e-12 -8.5068709e-29 1.4910211e-08 2.8541141e-28 1.4910947e-08)
(1.5681113e-08 -1.1769979e-12 4.3676505e-29 1.567907e-08 -1.1354949e-28 1.5680093e-08)
(1.6452633e-08 -1.3396101e-12 2.4917074e-29 1.6449869e-08 -8.9647788e-29 1.6451253e-08)
(1.7239908e-08 -1.477124e-12 -1.5880001e-28 1.7236317e-08 3.3386179e-28 1.7238114e-08)
(1.8059743e-08 -1.6053782e-12 2.1789129e-29 1.8055171e-08 -8.3277112e-30 1.8057459e-08)
(1.8989976e-08 -1.7191263e-12 -3.3563909e-28 1.8984254e-08 5.5692371e-28 1.8987116e-08)
(2.0100842e-08 -1.8512807e-12 2.3798105e-28 2.0093682e-08 -3.9830427e-28 2.0097263e-08)
(2.1307151e-08 -1.9962572e-12 -1.0206789e-28 2.1298302e-08 1.6455973e-28 2.1302726e-08)
(2.258321e-08 -2.1456027e-12 -1.6450193e-29 2.2572456e-08 3.3615586e-29 2.2577831e-08)
(2.392613e-08 -2.3070947e-12 -4.193924e-29 2.3913228e-08 4.2094046e-29 2.3919676e-08)
(2.5321898e-08 -2.4854209e-12 -1.5324825e-28 2.5306615e-08 2.1066041e-28 2.5314251e-08)
(2.6747997e-08 -2.6913847e-12 1.5401865e-28 2.6730088e-08 -2.0080129e-28 2.6739036e-08)
(2.8182204e-08 -2.9307671e-12 -1.1203888e-28 2.8161474e-08 2.3658192e-28 2.817183e-08)
(2.967787e-08 -3.2287246e-12 2.2752278e-27 2.9654066e-08 1.9771605e-27 2.9665957e-08)
(3.0898808e-08 -3.5422561e-12 2.47918e-27 3.0872122e-08 2.2931985e-27 3.0885452e-08)
(3.1797425e-08 -3.8213737e-12 -1.0405999e-28 3.1768256e-08 1.2227352e-28 3.1782826e-08)
(3.2396055e-08 -4.0136947e-12 1.1685869e-28 3.2364884e-08 -1.3550966e-28 3.2380454e-08)
(3.3175314e-08 -4.1684491e-12 -4.7731514e-28 3.3141943e-08 6.1660023e-28 3.3158611e-08)
(3.3976843e-08 -4.3095124e-12 3.5247869e-27 3.3941102e-08 2.7166477e-27 3.3958954e-08)
(3.481487e-08 -4.4093058e-12 3.2610133e-27 3.4776688e-08 3.5034231e-27 3.4795759e-08)
(3.5749705e-08 -4.4852028e-12 -7.9479209e-30 3.5708778e-08 2.3661813e-30 3.5729219e-08)
(3.6845133e-08 -4.5371658e-12 9.3867519e-29 3.6801066e-08 -1.1856059e-28 3.6823074e-08)
(3.8248295e-08 -4.5964697e-12 -1.5187109e-28 3.8200271e-08 1.7985407e-28 3.8224253e-08)
(3.9937059e-08 -4.644884e-12 4.9214138e-29 3.988417e-08 -5.6340437e-29 3.9910579e-08)
(4.31132e-08 -4.9259171e-12 9.5949141e-29 4.30519e-08 1.9739349e-28 4.3082504e-08)
(4.7913899e-08 -5.7837051e-12 -8.2740119e-29 4.7839339e-08 9.6909956e-29 4.7876557e-08)
(5.3391778e-08 -7.3934694e-12 1.973088e-29 5.3300269e-08 -2.5339568e-29 5.3345941e-08)
(6.0094514e-08 -1.0309802e-11 2.768461e-28 5.998028e-08 2.3620865e-28 6.0037287e-08)
(6.9106236e-08 -1.5598064e-11 2.1034052e-28 6.8959739e-08 -2.5855298e-28 6.903284e-08)
(8.1526915e-08 -2.5449258e-11 -5.9247419e-29 8.1332377e-08 1.1225446e-27 8.142944e-08)
(9.854042e-08 -4.3894655e-11 9.0506973e-28 9.8275235e-08 -1.2302147e-27 9.840754e-08)
(1.2055305e-07 -7.9113668e-11 1.7248301e-27 1.2018608e-07 -3.5122656e-28 1.2036915e-07)
(1.462811e-07 -1.412862e-10 6.9435567e-28 1.4579306e-07 -1.218787e-27 1.4603653e-07)
(1.6799761e-07 -2.3511508e-10 9.4688769e-26 1.6741738e-07 4.3891625e-26 1.6770683e-07)
(1.7645804e-07 -3.1866068e-10 1.1756736e-25 1.7593176e-07 3.3259451e-26 1.7619441e-07)
(1.6849513e-07 -3.2710282e-10 1.3989474e-28 1.6815087e-07 -5.4039066e-27 1.6832278e-07)
(1.499755e-07 -2.5634305e-10 -2.2583145e-28 1.4981478e-07 -1.3695272e-27 1.4989516e-07)
(1.247199e-07 -1.7485121e-10 -4.5719343e-29 1.246634e-07 6.7375322e-28 1.2469165e-07)
(1.1058343e-07 -1.0550087e-10 -4.081516e-29 1.1057091e-07 5.7024954e-29 1.1057724e-07)
(9.878718e-08 -8.3803624e-11 5.2106473e-26 9.8786838e-08 4.7868208e-29 9.8786967e-08)
(1.0533744e-07 -5.1303397e-11 3.1893796e-26 1.0533854e-07 -1.910846e-28 1.0533804e-07)
(3.8758989e-06 -2.1382674e-08 1.0657144e-28 3.8756864e-06 -4.8473648e-27 3.8757933e-06)
(4.2908468e-06 -2.0848042e-08 1.1675101e-23 4.29102e-06 -1.3929924e-26 4.2909162e-06)
(3.8229449e-06 -2.4744716e-08 4.5198713e-23 3.8257317e-06 -1.2487794e-24 3.824354e-06)
(3.1225088e-06 -1.6750682e-08 2.5140918e-23 3.1275554e-06 -1.8388408e-24 3.1250239e-06)
(2.0368864e-06 -8.8195971e-09 2.651174e-24 2.0420784e-06 -2.8866308e-25 2.0394847e-06)
(1.0564052e-06 -1.9566247e-09 4.9317553e-25 1.0582462e-06 -1.6266977e-25 1.0573283e-06)
(3.3687976e-07 1.5165803e-11 -4.7176241e-26 3.3679232e-07 -1.4649124e-26 3.3683774e-07)
(9.5622199e-08 1.0412445e-10 -1.6177854e-27 9.5353755e-08 -3.1778023e-27 9.5488413e-08)
(1.3252176e-07 1.2547192e-10 -6.8850047e-26 1.3208293e-07 1.8928729e-26 1.3230283e-07)
(1.8783484e-07 1.3276189e-10 -7.1135255e-26 1.8721498e-07 5.4447434e-26 1.8752549e-07)
(1.7320385e-07 8.6900612e-11 6.7741367e-27 1.7267674e-07 9.0313288e-27 1.7294073e-07)
(1.5043033e-07 5.4278669e-11 5.161737e-27 1.5001333e-07 1.9562912e-27 1.5022214e-07)
(1.2882721e-07 3.4865085e-11 -3.7225514e-27 1.2849726e-07 -2.7080685e-27 1.2866246e-07)
(1.1283491e-07 2.4253875e-11 1.5242243e-25 1.125636e-07 -1.1826819e-25 1.1269943e-07)
(1.0089009e-07 1.8372017e-11 1.3077651e-25 1.0066037e-07 -9.6722407e-26 1.0077537e-07)
(9.0020293e-08 1.4985678e-11 2.0007404e-27 8.9825413e-08 3.0453477e-27 8.992296e-08)
(8.0855055e-08 1.3301343e-11 -3.2228558e-26 8.0688464e-08 2.1933135e-26 8.077184e-08)
(7.2843711e-08 1.2618916e-11 -3.2919378e-26 7.2699233e-08 1.3174999e-26 7.2771533e-08)
(6.7173159e-08 1.23966e-11 -1.3852426e-26 6.7042904e-08 5.2166607e-27 6.710808e-08)
(6.2270233e-08 1.2185288e-11 -1.2071466e-26 6.2151204e-08 6.6486019e-27 6.2210757e-08)
(5.8544157e-08 1.2134179e-11 -3.8267757e-27 5.8432692e-08 -5.7484033e-27 5.8488455e-08)
(5.6162496e-08 1.2354044e-11 3.3041202e-27 5.6054672e-08 4.158009e-27 5.6108609e-08)
(5.516564e-08 1.2918124e-11 7.6667021e-27 5.5057484e-08 9.0697162e-27 5.5111583e-08)
(5.5658902e-08 1.3961235e-11 -2.7207001e-27 5.5545859e-08 -3.9701512e-27 5.56024e-08)
(5.7417789e-08 1.5490415e-11 -2.2105569e-27 5.7295467e-08 -2.1992364e-27 5.7356647e-08)
(6.0837428e-08 1.7726561e-11 2.473729e-27 6.0699993e-08 3.515921e-27 6.0768733e-08)
(6.5898189e-08 2.0702824e-11 2.7491509e-27 6.5739727e-08 4.7276931e-27 6.5818987e-08)
(7.2043809e-08 2.4526486e-11 1.0434822e-27 7.1860158e-08 9.0821894e-28 7.195202e-08)
(7.8692991e-08 2.9521484e-11 -1.7742649e-27 7.8481051e-08 -1.3531331e-27 7.8587067e-08)
(8.6532121e-08 3.637941e-11 -6.7162382e-27 8.6286632e-08 -1.0063791e-26 8.6409433e-08)
(9.5864139e-08 4.5780935e-11 -2.5487411e-27 9.5579001e-08 -5.3474325e-27 9.572164e-08)
(1.068296e-07 5.8539407e-11 -4.8642842e-27 1.0649852e-07 -4.96858e-27 1.0666415e-07)
(1.1950113e-07 7.5626102e-11 -1.3791359e-26 1.1911836e-07 -2.061163e-26 1.1930985e-07)
(1.3390045e-07 9.8149418e-11 1.2717077e-28 1.3346185e-07 -1.4905841e-28 1.3368127e-07)
(1.4999047e-07 1.274041e-10 -6.0567452e-26 1.4949444e-07 7.103282e-26 1.4974258e-07)
(1.6783608e-07 1.6508615e-10 -9.8843259e-26 1.6728287e-07 4.100145e-26 1.6755961e-07)
(1.8797295e-07 2.1368409e-10 -9.0891943e-26 1.8736112e-07 6.3550194e-26 1.8766717e-07)
(2.1088461e-07 2.7421275e-10 -5.860537e-25 2.1021504e-07 3.0822695e-25 2.1054996e-07)
(2.3615325e-07 3.4645688e-10 -5.9078236e-25 2.3543533e-07 2.1985768e-25 2.3579442e-07)
(2.6329713e-07 4.2937333e-10 7.1677845e-25 2.6254887e-07 -2.1674297e-25 2.6292312e-07)
(2.9195749e-07 5.2195183e-10 8.1229858e-25 2.912035e-07 -2.7954653e-25 2.9158061e-07)
(3.213394e-07 6.1820567e-10 3.3840062e-27 3.2061546e-07 4.9417166e-27 3.209775e-07)
(3.5059218e-07 7.1761573e-10 1.0370087e-24 3.4993501e-07 -2.2429883e-25 3.5026367e-07)
(3.7803284e-07 8.0432025e-10 1.1357663e-24 3.7748976e-07 -1.98839e-25 3.7776128e-07)
(4.0280187e-07 8.9576618e-10 6.5659949e-27 4.0240367e-07 2.0852933e-26 4.0260285e-07)
(4.2394367e-07 9.6513078e-10 -6.401967e-25 4.2372408e-07 2.9780178e-26 4.2383365e-07)
(4.6581488e-07 1.238704e-09 -8.232725e-25 4.657584e-07 7.050983e-27 4.6578671e-07)
(6.0025899e-07 1.9056387e-09 -1.361958e-30 6.0023165e-07 -4.6739504e-30 6.0024491e-07)
(7.1889184e-07 2.4809126e-09 -8.0424128e-31 7.1887045e-07 -1.1334139e-30 7.18881e-07)
(8.1426196e-07 3.0038783e-09 7.4502069e-31 8.1424384e-07 6.2772774e-30 8.1425253e-07)
(9.0471177e-07 3.4765807e-09 2.3225308e-31 9.0469714e-07 -1.9707595e-30 9.047042e-07)
(9.8627192e-07 3.9175137e-09 -2.7332791e-24 9.862599e-07 1.4951155e-27 9.8626553e-07)
(1.0637537e-06 4.3184114e-09 -3.0193718e-24 1.0637444e-06 1.2104186e-27 1.0637487e-06)
(1.1353754e-06 4.6875334e-09 9.6265301e-32 1.1353683e-06 6.2925877e-30 1.1353715e-06)
(1.2030527e-06 5.0195604e-09 1.2752587e-32 1.203048e-06 -6.6972705e-30 1.20305e-06)
(1.2660742e-06 5.3187451e-09 -1.5455503e-32 1.2660716e-06 -3.8338297e-30 1.2660725e-06)
(1.325196e-06 5.5820465e-09 -3.8604439e-24 1.3251956e-06 4.1454927e-28 1.3251954e-06)
(1.3802346e-06 5.8123477e-09 -4.013401e-24 1.3802361e-06 2.9381624e-28 1.3802349e-06)
(1.4314717e-06 6.007405e-09 2.0800002e-24 1.4314753e-06 -9.4753409e-29 1.4314731e-06)
(1.4787963e-06 6.1685446e-09 -6.5143528e-24 1.4788018e-06 -1.092681e-27 1.4787986e-06)
(1.522357e-06 6.2954178e-09 -1.3298205e-23 1.5223644e-06 -2.9667372e-27 1.5223603e-06)
(1.5621578e-06 6.3894411e-09 -4.546932e-24 1.5621669e-06 -1.7697233e-27 1.5621619e-06)
(1.5983114e-06 6.4512336e-09 1.9537947e-30 1.5983223e-06 -1.6151899e-31 1.5983165e-06)
(1.6308674e-06 6.4823426e-09 1.6193604e-32 1.6308799e-06 5.3466248e-31 1.6308733e-06)
(1.6599258e-06 6.4839901e-09 4.2304082e-33 1.6599397e-06 1.1699878e-30 1.6599324e-06)
(1.6855919e-06 6.4580211e-09 -8.4665562e-32 1.6856072e-06 -4.0386471e-30 1.6855992e-06)
(1.7079588e-06 6.4060016e-09 9.3399785e-31 1.7079753e-06 4.8818106e-30 1.7079667e-06)
(1.7271626e-06 6.329975e-09 -2.2047469e-24 1.7271802e-06 -3.608425e-28 1.7271711e-06)
(1.7433163e-06 6.2317855e-09 -1.7485461e-23 1.7433348e-06 -7.0605941e-27 1.7433253e-06)
(1.756545e-06 6.1134592e-09 -1.5039905e-23 1.7565644e-06 -7.0251415e-27 1.7565544e-06)
(1.7670102e-06 5.9770734e-09 4.4328602e-32 1.7670303e-06 -1.5023865e-30 1.76702e-06)
(1.7748942e-06 5.824804e-09 9.1894941e-33 1.774915e-06 5.2778e-31 1.7749044e-06)
(1.7803584e-06 5.6586393e-09 -2.2753787e-32 1.7803797e-06 -4.9855391e-32 1.7803689e-06)
(1.7835247e-06 5.4804084e-09 2.7494066e-32 1.7835465e-06 5.9999322e-31 1.7835354e-06)
(1.7843201e-06 5.2912608e-09 7.2988023e-31 1.7843421e-06 -4.3288856e-31 1.7843309e-06)
(1.7828572e-06 5.09289e-09 -7.3597419e-31 1.7828795e-06 -1.3293261e-31 1.7828682e-06)
(1.779514e-06 4.8877728e-09 1.7128421e-24 1.7795364e-06 5.7371196e-28 1.7795251e-06)
(1.7750206e-06 4.6791125e-09 1.6389798e-24 1.775043e-06 5.8182193e-28 1.7750317e-06)
(1.7687985e-06 4.4661826e-09 -6.2722088e-31 1.7688209e-06 -8.2620339e-33 1.7688096e-06)
(1.760911e-06 4.2502037e-09 1.2237378e-30 1.7609332e-06 4.2659539e-31 1.760922e-06)
(1.7516963e-06 4.0329874e-09 -6.1147596e-31 1.7517184e-06 -9.4996674e-31 1.7517073e-06)
(1.7412431e-06 3.8155154e-09 -1.3438525e-24 1.741265e-06 -5.9613831e-28 1.741254e-06)
(1.7296642e-06 3.5988245e-09 -1.2678806e-24 1.7296858e-06 -5.9515294e-28 1.729675e-06)
(1.7170766e-06 3.3838161e-09 -2.4708557e-31 1.7170978e-06 8.5627282e-31 1.7170872e-06)
(1.703576e-06 3.1712369e-09 -6.7413171e-24 1.7035968e-06 -7.3285647e-27 1.7035864e-06)
(1.689263e-06 2.9618213e-09 -6.3045139e-24 1.6892835e-06 -7.199185e-27 1.6892733e-06)
(1.674224e-06 2.7561561e-09 -1.9651874e-31 1.6742441e-06 -3.6649207e-31 1.6742341e-06)
(1.658536e-06 2.554745e-09 2.024587e-31 1.6585556e-06 -5.1850945e-31 1.6585459e-06)
(1.6423776e-06 2.3581408e-09 -3.3564288e-24 1.6423967e-06 -4.5017248e-27 1.6423872e-06)
(1.6256263e-06 2.1664555e-09 -3.0890566e-24 1.625645e-06 -4.393388e-27 1.6256357e-06)
(1.6084927e-06 1.9801589e-09 6.4804612e-33 1.6085109e-06 7.1261014e-31 1.6085019e-06)
(1.5909856e-06 1.7994519e-09 -6.488852e-25 1.5910033e-06 -5.2516083e-28 1.5909945e-06)
(1.5731672e-06 1.6244934e-09 -5.8816279e-25 1.5731844e-06 -5.1402076e-28 1.5731759e-06)
(1.5550743e-06 1.4554017e-09 -5.1957912e-33 1.5550909e-06 1.0523994e-30 1.5550827e-06)
(1.5367535e-06 1.2923199e-09 4.1920792e-33 1.5367696e-06 1.5680275e-31 1.5367616e-06)
(1.5182306e-06 1.1352092e-09 -1.1014412e-33 1.5182463e-06 -4.5095204e-31 1.5182385e-06)
(1.4995024e-06 9.8408122e-10 -3.6703542e-25 1.4995175e-06 -4.6331109e-28 1.49951e-06)
(1.4805686e-06 8.3893704e-10 -3.167946e-25 1.4805832e-06 -4.5078073e-28 1.480576e-06)
(1.461408e-06 6.9971912e-10 6.174739e-33 1.4614221e-06 -1.8987198e-31 1.4614151e-06)
(1.4420253e-06 5.6650238e-10 -4.7613403e-33 1.4420389e-06 -8.7920982e-32 1.4420322e-06)
(1.4225106e-06 4.3950072e-10 2.0448889e-33 1.4225236e-06 -6.7854594e-32 1.4225172e-06)
(1.4030057e-06 3.1885059e-10 -6.7168827e-33 1.4030182e-06 -2.0594393e-33 1.4030121e-06)
(1.3836224e-06 2.0453063e-10 9.7229349e-26 1.3836344e-06 3.8007425e-28 1.3836285e-06)
(1.3644246e-06 9.6426765e-11 -3.4198627e-26 1.3644361e-06 -1.0028133e-27 1.3644305e-06)
(1.3454379e-06 -5.7022863e-12 -2.2343458e-26 1.3454489e-06 -1.310894e-27 1.3454435e-06)
(1.3266549e-06 -1.0209232e-10 -1.8691516e-32 1.3266654e-06 2.72867e-31 1.3266603e-06)
(1.3080539e-06 -1.9301405e-10 4.0501812e-26 1.3080639e-06 -3.2435251e-28 1.308059e-06)
(1.2896182e-06 -2.7870492e-10 -2.6993214e-29 1.2896278e-06 -3.3878446e-31 1.2896231e-06)
(1.2713316e-06 -3.5934273e-10 -9.8268613e-26 1.2713408e-06 3.0029688e-28 1.2713363e-06)
(1.2531889e-06 -4.3505617e-10 -8.9322477e-33 1.2531976e-06 1.1274872e-30 1.2531933e-06)
(1.2351893e-06 -5.0601963e-10 -3.306594e-32 1.2351976e-06 -1.9931274e-31 1.2351935e-06)
(1.2173234e-06 -5.7237462e-10 9.0974149e-32 1.2173314e-06 -3.6253489e-31 1.2173275e-06)
(1.1995903e-06 -6.3425138e-10 -4.3783335e-32 1.1995978e-06 -5.668008e-31 1.1995941e-06)
(1.181985e-06 -6.9179935e-10 -4.4099433e-32 1.1819922e-06 -6.8319003e-31 1.1819887e-06)
(1.1644998e-06 -7.4512675e-10 7.6823119e-32 1.1645067e-06 8.8919805e-31 1.1645033e-06)
(1.1471335e-06 -7.9437046e-10 -2.9430994e-32 1.14714e-06 -5.2857235e-31 1.1471369e-06)
(1.129878e-06 -8.396604e-10 -3.9218944e-32 1.1298841e-06 -1.9512922e-32 1.1298811e-06)
(1.1127228e-06 -8.810823e-10 -1.0390592e-31 1.1127286e-06 3.4880156e-30 1.1127258e-06)
(1.0956658e-06 -9.1876381e-10 -7.7670128e-33 1.0956712e-06 4.3747269e-31 1.0956686e-06)
(1.0786952e-06 -9.5281036e-10 1.7395816e-31 1.0787003e-06 -5.7672383e-30 1.0786978e-06)
(1.0618005e-06 -9.8329857e-10 -3.1519825e-25 1.0618053e-06 1.7181094e-28 1.061803e-06)
(1.0449757e-06 -1.0103318e-09 -3.25124e-25 1.0449802e-06 1.612802e-28 1.0449781e-06)
(1.0282072e-06 -1.0340015e-09 3.3307027e-25 1.0282114e-06 -1.4874733e-28 1.0282093e-06)
(1.011482e-06 -1.0543631e-09 3.4076913e-25 1.0114859e-06 -1.4213009e-28 1.0114841e-06)
(9.9479079e-07 -1.0715046e-09 1.6955047e-32 9.9479439e-07 -1.1737645e-30 9.9479267e-07)
(9.7811767e-07 -1.0854911e-09 -3.5146099e-25 9.7812098e-07 1.2119512e-28 9.781194e-07)
(9.6144635e-07 -1.0963686e-09 -3.5599649e-25 9.6144938e-07 1.178438e-28 9.6144793e-07)
(9.4476429e-07 -1.1041917e-09 7.1705251e-25 9.4476704e-07 -2.1768686e-28 9.4476573e-07)
(9.2805103e-07 -1.1090191e-09 7.2208971e-25 9.280535e-07 -1.96617e-28 9.2805233e-07)
(9.1128877e-07 -1.110857e-09 1.7369001e-31 9.1129096e-07 2.4166285e-30 9.1128993e-07)
(8.9445644e-07 -1.1097639e-09 -1.8731338e-24 8.9445836e-07 5.628902e-28 8.9445747e-07)
(8.7753358e-07 -1.1057342e-09 -1.8662975e-24 8.7753522e-07 4.8566774e-28 8.7753447e-07)
(8.6049032e-07 -1.0988073e-09 1.6001506e-31 8.6049169e-07 1.1291097e-29 8.6049107e-07)
(8.4330833e-07 -1.0889397e-09 9.0484545e-32 8.4330942e-07 -9.892476e-30 8.4330893e-07)
(8.2594553e-07 -1.0761965e-09 -1.0474936e-31 8.2594635e-07 3.8585315e-30 8.25946e-07)