/*--------------------------------*- C++ -*----------------------------------*\
| =========                 |                                                 |
| \\      /  F ield         | OpenFOAM: The Open Source CFD Toolbox           |
|  \\    /   O peration     | Version:  2.4.0                                 |
|   \\  /    A nd           | Web:      www.OpenFOAM.org                      |
|    \\/     M anipulation  |                                                 |
\*---------------------------------------------------------------------------*/
FoamFile
{
    version     2.0;
    format      ascii;
    class       volSymmTensorField;
    location    "8247";
    object      T03;
}
// * * * * * * * * * * * * * * * * * * * * * * * * * * * * * * * * * * * * * //

dimensions      [0 0 0 0 0 0 0];

internalField   nonuniform List<symmTensor> 
32000
(
(3.1261774e-08 -1.0493006e-11 1.90789e-26 3.1261599e-08 -2.9008633e-30 -6.2523374e-08)
(2.2107578e-08 -3.3164893e-11 2.6531216e-26 2.2107675e-08 4.1240648e-23 -4.4215253e-08)
(4.5381771e-08 4.057853e-11 2.4747096e-24 4.5377287e-08 8.453873e-23 -9.0759058e-08)
(2.9435924e-08 -1.6833569e-11 2.3289415e-24 2.9441152e-08 2.7279709e-23 -5.8877076e-08)
(2.0172757e-08 1.0094455e-11 2.9858652e-24 2.0166607e-08 1.8458438e-23 -4.0339364e-08)
(3.1460134e-09 -1.1402325e-11 3.5489648e-25 3.1575557e-09 2.8589467e-24 -6.3035691e-09)
(1.7703306e-10 3.3399222e-12 1.0650479e-25 1.710561e-10 1.224274e-25 -3.4808916e-10)
(4.0573261e-09 1.4709448e-11 -1.8594752e-25 4.0207034e-09 9.5942621e-26 -8.0780295e-09)
(4.2267023e-09 8.3159347e-12 1.8811021e-24 4.1978837e-09 2.7175939e-24 -8.424586e-09)
(3.6559817e-09 5.4786964e-12 1.4115841e-24 3.6305224e-09 2.4127228e-24 -7.2865041e-09)
(2.8653877e-09 3.1631144e-12 1.1458608e-25 2.8462472e-09 -8.6273637e-26 -5.7116348e-09)
(2.2625229e-09 1.8369464e-12 7.2294132e-26 2.2484418e-09 -5.8805311e-26 -4.5109646e-09)
(1.8745679e-09 1.1539896e-12 3.2830869e-25 1.8636831e-09 -2.1774989e-25 -3.738251e-09)
(1.6233101e-09 7.9963853e-13 -1.2546048e-25 1.6144029e-09 1.0977773e-25 -3.2377131e-09)
(1.4402833e-09 5.9754326e-13 -9.4348438e-26 1.4328424e-09 8.1698373e-26 -2.8731257e-09)
(1.2937585e-09 4.7921851e-13 1.2202746e-25 1.2875447e-09 -1.370114e-25 -2.5813033e-09)
(1.1678199e-09 3.999249e-13 1.3886698e-24 1.1628187e-09 1.007724e-24 -2.3306387e-09)
(1.0821988e-09 3.4976016e-13 1.0866888e-24 1.0782e-09 1.1122579e-24 -2.1603988e-09)
(1.036214e-09 3.190771e-13 6.9018194e-25 1.032867e-09 3.7003791e-25 -2.069081e-09)
(1.0085322e-09 2.8753729e-13 6.4541583e-25 1.0057282e-09 3.8676901e-25 -2.0142604e-09)
(1.0021683e-09 2.5707185e-13 3.4155719e-25 9.9981157e-10 -2.7793828e-25 -2.0019799e-09)
(1.0207199e-09 2.323891e-13 -2.3256845e-25 1.018697e-09 1.7975839e-25 -2.0394169e-09)
(1.0663096e-09 2.124921e-13 4.2731858e-26 1.0645367e-09 -5.7071403e-26 -2.1308462e-09)
(1.1468646e-09 2.0513082e-13 1.3892096e-25 1.1452112e-09 -1.2977738e-25 -2.2920758e-09)
(1.265144e-09 2.1441233e-13 2.1090425e-25 1.2634604e-09 -2.0079489e-25 -2.5286044e-09)
(1.427527e-09 2.5136745e-13 -1.806741e-25 1.4255909e-09 1.4067185e-25 -2.853118e-09)
(1.6235676e-09 3.2218839e-13 -4.0765303e-25 1.6211185e-09 3.6295278e-25 -3.2446861e-09)
(1.8330652e-09 4.0578125e-13 -5.0509384e-25 1.8300471e-09 3.807672e-25 -3.6631123e-09)
(2.0616814e-09 5.0916962e-13 1.7048351e-25 2.0580495e-09 -7.6467459e-26 -4.1197308e-09)
(2.31361e-09 6.4674753e-13 -1.7148152e-25 2.3092722e-09 7.6114377e-26 -4.6228823e-09)
(2.5834321e-09 8.1791539e-13 -1.9762646e-25 2.5783659e-09 8.0212899e-26 -5.161798e-09)
(2.8649191e-09 1.024648e-12 2.7136298e-25 2.8591519e-09 -1.1427824e-25 -5.724071e-09)
(3.1482259e-09 1.2571688e-12 2.2470618e-25 3.1418885e-09 -1.6613274e-25 -6.2901144e-09)
(3.4194619e-09 1.4921185e-12 -1.1833675e-26 3.4128149e-09 -1.6083742e-26 -6.8322767e-09)
(3.6674719e-09 1.6777658e-12 1.3827164e-24 3.6609547e-09 3.4167278e-24 -7.3284266e-09)
(3.9019432e-09 1.7744332e-12 1.4587391e-24 3.8960078e-09 3.6679556e-24 -7.797951e-09)
(4.1681965e-09 1.8286503e-12 2.132988e-24 4.1629692e-09 3.2391288e-24 -8.3311657e-09)
(4.4480473e-09 1.892576e-12 1.7857008e-24 4.4434323e-09 3.8301734e-24 -8.8914796e-09)
(4.7048441e-09 1.8290049e-12 5.4112611e-25 4.7010578e-09 -1.7798619e-25 -9.4059019e-09)
(4.9178445e-09 1.6754606e-12 -3.1613057e-25 4.9149265e-09 5.6106366e-26 -9.8327711e-09)
(5.0955431e-09 1.3566906e-12 1.0005165e-25 5.0935835e-09 -3.8631868e-26 -1.0189127e-08)
(5.1775758e-09 1.0200608e-12 1.0889069e-25 5.1763809e-09 -8.0546373e-26 -1.0353957e-08)
(5.2507689e-09 4.1695157e-13 -1.0455618e-25 5.2503867e-09 3.3719295e-26 -1.0501156e-08)
(5.1641434e-09 2.6900765e-13 -2.2652902e-26 5.1639616e-09 2.6729585e-26 -1.0328105e-08)
(5.2723086e-09 -7.5669965e-13 -1.3992477e-25 5.272645e-09 -1.0744285e-26 -1.0544954e-08)
(5.1940614e-09 3.4340003e-13 6.1061484e-25 5.1939852e-09 1.1046571e-23 -1.0388047e-08)
(7.1616687e-09 -4.297176e-12 1.3160321e-25 7.1618111e-09 1.5280577e-23 -1.432348e-08)
(1.0567973e-08 -2.3249716e-12 -2.0101073e-29 1.0567985e-08 -1.0006136e-28 -2.1135959e-08)
(1.2585394e-08 -3.8785145e-12 1.2518847e-28 1.2585407e-08 -4.7988796e-30 -2.5170801e-08)
(1.4520571e-08 -2.8502914e-12 -1.4761058e-28 1.4520578e-08 3.8762808e-30 -2.9041148e-08)
(1.5823776e-08 -3.6075884e-12 5.7791193e-29 1.5823782e-08 -3.9318844e-30 -3.1647559e-08)
(1.6989469e-08 -3.1519701e-12 6.2026701e-29 1.6989473e-08 3.333049e-30 -3.3978941e-08)
(1.780028e-08 -3.4876788e-12 -1.0899324e-28 1.7800284e-08 -4.4898738e-30 -3.5600564e-08)
(1.846888e-08 -3.2539811e-12 3.6365807e-29 1.8468883e-08 6.3005041e-30 -3.6937763e-08)
(1.8906448e-08 -3.3614897e-12 3.048889e-30 1.890645e-08 -3.8559768e-31 -3.7812898e-08)
(1.9211417e-08 -3.2023417e-12 2.2632423e-29 1.9211418e-08 -1.9305579e-31 -3.8422835e-08)
(1.9351979e-08 -3.1862203e-12 2.101513e-27 1.935198e-08 4.1242123e-23 -3.870396e-08)
(1.9378125e-08 -3.0418459e-12 9.1859065e-28 1.9378125e-08 4.1330459e-23 -3.875625e-08)
(1.927762e-08 -2.950966e-12 7.6197157e-29 1.927762e-08 -2.0533406e-23 -3.855524e-08)
(1.9076496e-08 -2.7971392e-12 6.9442762e-28 1.9076496e-08 -2.0334472e-23 -3.8152993e-08)
(1.8776631e-08 -2.6642481e-12 2.2728265e-27 1.877663e-08 -4.001733e-23 -3.7553261e-08)
(1.8395326e-08 -2.5013658e-12 3.0444945e-27 1.8395325e-08 -3.9232806e-23 -3.6790651e-08)
(1.7938756e-08 -2.3466143e-12 7.2428053e-30 1.7938755e-08 5.5611081e-32 -3.5877511e-08)
(1.7419627e-08 -2.1786086e-12 -9.3283917e-30 1.7419626e-08 -9.0215282e-33 -3.4839254e-08)
(1.684551e-08 -2.015372e-12 1.5519698e-29 1.6845509e-08 -2.596118e-30 -3.3691018e-08)
(1.6226572e-08 -1.8481971e-12 -1.3042301e-29 1.622657e-08 5.0092305e-30 -3.2453142e-08)
(1.5570412e-08 -1.6860332e-12 -1.5000091e-30 1.5570411e-08 -4.5964828e-30 -3.1140824e-08)
(1.488555e-08 -1.5255637e-12 -3.094807e-27 1.4885549e-08 1.5856472e-23 -2.9771098e-08)
(1.4179063e-08 -1.3712977e-12 -6.4057515e-27 1.4179062e-08 3.0229763e-23 -2.8358124e-08)
(1.345811e-08 -1.2222272e-12 -3.3046064e-27 1.3458109e-08 1.4356511e-23 -2.6916219e-08)
(1.2728899e-08 -1.0807564e-12 -1.441203e-29 1.2728898e-08 1.8723062e-30 -2.5457798e-08)
(1.1997406e-08 -9.4658879e-13 1.2555061e-29 1.1997405e-08 5.685474e-34 -2.399481e-08)
(1.1268743e-08 -8.2067657e-13 -1.1055076e-29 1.1268743e-08 1.6486526e-30 -2.2537486e-08)
(1.0547613e-08 -7.0304786e-13 6.0962577e-30 1.0547612e-08 -1.6127733e-30 -2.1095225e-08)
(9.8380379e-09 -5.9413128e-13 -4.3404581e-30 9.8380371e-09 -4.9607041e-33 -1.9676075e-08)
(9.1435408e-09 -4.936633e-13 1.9661938e-31 9.1435401e-09 3.4283228e-32 -1.8287081e-08)
(8.4676395e-09 -4.0267731e-13 3.1628383e-27 8.4676389e-09 -9.0206803e-24 -1.6935278e-08)
(7.8133251e-09 -3.1993372e-13 3.0712466e-27 7.8133246e-09 -8.3271771e-24 -1.562665e-08)
(7.1822252e-09 -2.4503565e-13 2.5712134e-31 7.1822248e-09 1.0811796e-30 -1.436445e-08)
(6.5762529e-09 -1.786181e-13 1.2701012e-30 6.5762526e-09 -9.4650611e-31 -1.3152505e-08)
(5.9970168e-09 -1.1965693e-13 -1.0959864e-30 5.9970166e-09 8.6856532e-31 -1.1994033e-08)
(5.445482e-09 -6.7966886e-14 -2.6047615e-27 5.4454819e-09 5.8014041e-24 -1.0890964e-08)
(4.9226104e-09 -2.3540009e-14 -2.4662419e-27 4.9226104e-09 5.2461101e-24 -9.8452208e-09)
(4.4288883e-09 1.4846516e-14 3.9425065e-31 4.4288883e-09 -3.3726139e-31 -8.8577767e-09)
(3.9645109e-09 4.68661e-14 9.3761982e-31 3.964511e-09 2.6628857e-31 -7.9290218e-09)
(3.529626e-09 7.3475331e-14 -2.9841051e-30 3.5296262e-09 7.8226944e-33 -7.0592521e-09)
(3.1240453e-09 9.4831272e-14 -7.284611e-31 3.1240455e-09 2.6847171e-31 -6.2480909e-09)
(2.74744e-09 1.1149021e-13 1.5322616e-30 2.7474402e-09 -2.3253609e-31 -5.4948802e-09)
(2.3992612e-09 1.2394103e-13 1.4339763e-30 2.3992615e-09 -1.0443529e-32 -4.7985226e-09)
(2.0789779e-09 1.3238316e-13 -4.2724323e-30 2.0789783e-09 5.3059764e-33 -4.1579562e-09)
(1.7858033e-09 1.3748384e-13 3.6586482e-30 1.7858037e-09 5.0495214e-32 -3.571607e-09)
(1.518998e-09 1.3923045e-13 -1.2635966e-27 1.5189984e-09 1.6198134e-24 -3.0379964e-09)
(1.2776249e-09 1.3846471e-13 -1.1383557e-27 1.2776254e-09 1.3626256e-24 -2.5552503e-09)
(1.0607484e-09 1.3504573e-13 -1.7326532e-30 1.0607489e-09 -5.3151453e-32 -2.1214973e-09)
(8.6746011e-10 1.296092e-13 1.7077467e-31 8.6746062e-10 2.2991552e-32 -1.7349207e-09)
(6.9663228e-10 1.223211e-13 1.2484448e-31 6.9663282e-10 -2.1833097e-33 -1.3932651e-09)
(5.4726484e-10 1.1342206e-13 -6.96781e-28 5.4726539e-10 5.8361359e-25 -1.0945302e-09)
(4.1833634e-10 1.0317453e-13 -5.9817633e-28 4.183369e-10 4.4614748e-25 -8.3667324e-10)
(3.0878606e-10 9.1773139e-14 3.3828586e-31 3.0878663e-10 -4.8753644e-34 -6.1757269e-10)
(2.1765672e-10 7.9350019e-14 -2.7930837e-32 2.176573e-10 -2.4791228e-33 -4.3531402e-10)
(1.4403714e-10 6.6066392e-14 4.8801957e-32 1.4403772e-10 -5.2326609e-34 -2.8807486e-10)
(8.6901291e-11 5.2306422e-14 1.9208463e-32 8.6901864e-11 3.0495146e-33 -1.7380315e-10)
(4.5120501e-11 3.8273343e-14 1.7465206e-28 4.5121068e-11 -4.811961e-26 -9.0241569e-11)
(1.7539478e-11 2.4171564e-14 1.0589963e-28 1.7540036e-11 -1.87037e-26 -3.5079514e-11)
(3.0037595e-12 1.0114751e-14 1.8076763e-32 3.0043091e-12 5.5961614e-34 -6.0080686e-12)
(4.2465124e-13 -3.8339522e-15 -3.4042412e-32 4.2519126e-13 2.4459604e-33 -8.498425e-13)
(8.7814949e-12 -1.7618486e-14 6.8984954e-29 8.7820248e-12 9.3565917e-27 -1.756352e-11)
(2.7126767e-11 -3.1197094e-14 -1.2683702e-31 2.7127287e-11 -2.8044115e-29 -5.4254054e-11)
(5.456373e-11 -4.4509835e-14 -1.611928e-28 5.4564238e-11 -5.8184764e-26 -1.0912797e-10)
(9.0215045e-11 -5.7471941e-14 -1.5456381e-30 9.021554e-11 -8.1286455e-33 -1.8043059e-10)
(1.3325613e-10 -7.0094385e-14 1.3612769e-30 1.3325661e-10 -1.2301469e-32 -2.6651273e-10)
(1.8288716e-10 -8.2267771e-14 -2.2440829e-30 1.8288763e-10 2.6049177e-32 -3.6577479e-10)
(2.3832762e-10 -9.4005759e-14 -6.3673803e-31 2.3832807e-10 6.2523501e-33 -4.7665569e-10)
(2.9884957e-10 -1.052777e-13 1.8100317e-30 2.9885001e-10 3.8891441e-32 -5.9769957e-10)
(3.6371752e-10 -1.1601048e-13 2.9649776e-30 3.6371794e-10 -5.9097928e-32 -7.2743546e-10)
(4.3225077e-10 -1.2626887e-13 -2.0546843e-30 4.3225118e-10 -2.9260241e-32 -8.6450195e-10)
(5.0380359e-10 -1.3598931e-13 -6.1146779e-31 5.0380399e-10 7.3235619e-32 -1.0076076e-09)
(5.7769922e-10 -1.451228e-13 4.1192657e-30 5.776996e-10 3.0080239e-32 -1.1553988e-09)
(6.533393e-10 -1.5378195e-13 1.8020187e-30 6.5333966e-10 -1.3003635e-31 -1.306679e-09)
(7.3013838e-10 -1.6186333e-13 -1.3684582e-31 7.3013872e-10 8.8999992e-33 -1.4602771e-09)
(8.0748238e-10 -1.6939198e-13 -4.1306488e-28 8.0748271e-10 -8.6056425e-25 -1.6149651e-09)
(8.8482376e-10 -1.763967e-13 -3.960986e-28 8.8482407e-10 -9.4263934e-25 -1.7696478e-09)
(9.6163848e-10 -1.8289247e-13 3.8840579e-28 9.6163878e-10 1.0248737e-24 -1.9232773e-09)
(1.0373446e-09 -1.887713e-13 3.9970848e-28 1.0373449e-09 1.1051059e-24 -2.0746895e-09)
(1.1114484e-09 -1.9426722e-13 -2.9452882e-30 1.1114487e-09 1.6164282e-31 -2.2228971e-09)
(1.183445e-09 -1.9913726e-13 -3.7719992e-28 1.1834453e-09 -1.2613008e-24 -2.3668903e-09)
(1.2528026e-09 -2.0357891e-13 -3.6175191e-28 1.2528028e-09 -1.3346031e-24 -2.5056055e-09)
(1.319017e-09 -2.0743982e-13 6.9691503e-28 1.3190172e-09 2.8128372e-24 -2.6380342e-09)
(1.3816464e-09 -2.1099254e-13 6.6505549e-28 1.3816466e-09 2.944925e-24 -2.763293e-09)
(1.440101e-09 -2.1376943e-13 9.755823e-31 1.4401012e-09 1.340764e-31 -2.8802023e-09)
(1.4939751e-09 -2.1651333e-13 -2.807818e-28 1.4939753e-09 -1.5936948e-24 -2.9879504e-09)
(1.5426777e-09 -2.1822628e-13 -2.6533658e-28 1.5426778e-09 -1.6447373e-24 -3.0853555e-09)
(1.5858118e-09 -2.2015997e-13 9.6786072e-30 1.585812e-09 6.7030136e-32 -3.1716238e-09)
(1.6226602e-09 -2.2070538e-13 -3.3995771e-30 1.6226603e-09 -3.0350405e-31 -3.2453205e-09)
(1.6529999e-09 -2.2209445e-13 -2.0558362e-26 1.653e-09 -5.8109387e-25 -3.306e-09)
(1.6758098e-09 -2.2105889e-13 -3.3362716e-23 1.6758099e-09 -2.374884e-24 -3.3516197e-09)
(1.6911922e-09 -2.223132e-13 -3.3835415e-23 1.6911922e-09 -1.2112466e-24 -3.3823844e-09)
(1.6975943e-09 -2.1905046e-13 4.5317243e-26 1.6975943e-09 1.2010261e-24 -3.3951886e-09)
(1.6959147e-09 -2.2115542e-13 3.4526096e-23 1.6959147e-09 6.1255852e-25 -3.3918294e-09)
(1.683627e-09 -2.1433772e-13 3.4727155e-23 1.6836269e-09 -6.0216439e-25 -3.3672539e-09)
(1.6627785e-09 -2.1856233e-13 -2.4260754e-26 1.6627785e-09 -6.0604404e-25 -3.325557e-09)
(1.628297e-09 -2.0483279e-13 -1.6344825e-29 1.628297e-09 -6.3008141e-31 -3.256594e-09)
(1.5852486e-09 -2.1435935e-13 -4.8563404e-30 1.5852485e-09 5.5669411e-33 -3.1704972e-09)
(1.5243017e-09 -1.8867555e-13 1.1464059e-29 1.5243016e-09 1.1429531e-31 -3.0486033e-09)
(1.4570794e-09 -2.1049149e-13 -5.3315096e-30 1.4570792e-09 8.0725172e-31 -2.9141586e-09)
(1.3653785e-09 -1.6240294e-13 1.6106222e-29 1.3653783e-09 -4.6381933e-31 -2.7307567e-09)
(1.2732089e-09 -2.0859316e-13 -2.3275032e-29 1.2732086e-09 -9.1350929e-33 -2.5464175e-09)
(1.1459015e-09 -1.2025137e-13 1.7860338e-29 1.1459013e-09 -6.0562967e-31 -2.2918027e-09)
(1.0304778e-09 -2.1048738e-13 -2.754731e-29 1.0304773e-09 2.6991073e-31 -2.0609552e-09)
(8.6243538e-10 -5.3624787e-14 7.9508996e-30 8.6243521e-10 3.0092489e-31 -1.7248706e-09)
(7.2893007e-10 -2.1433609e-13 4.0811136e-30 7.2892918e-10 -1.6173787e-32 -1.4578593e-09)
(5.1879646e-10 4.1523448e-14 -1.3118399e-30 5.1879672e-10 -5.2795023e-32 -1.0375932e-09)
(3.8085068e-10 -2.002456e-13 1.8497585e-29 3.808488e-10 -1.948602e-29 -7.6169948e-10)
(1.5015303e-10 1.3634565e-13 -6.927501e-28 1.5015926e-10 -9.0328377e-28 -3.0031229e-10)
(4.7564305e-11 -3.5908807e-14 -2.8847719e-26 4.7556066e-11 -1.6836465e-27 -9.5120372e-11)
(6.3966089e-11 1.4552355e-13 -6.5609035e-26 6.4030534e-11 -6.3722565e-27 -1.2799662e-10)
(7.2744184e-11 1.6822201e-13 3.9064021e-26 7.2857024e-11 6.248725e-27 -1.4560121e-10)
(1.2210242e-10 3.5413315e-13 -6.7006531e-26 1.2242521e-10 -1.3447845e-26 -2.4452763e-10)
(1.7538262e-10 4.3779091e-13 -3.5718974e-26 1.7589316e-10 -8.2996113e-27 -3.5127578e-10)
(2.636208e-10 5.9409731e-13 -1.7707306e-25 2.6447505e-10 -6.1284888e-26 -5.2809585e-10)
(3.6527659e-10 6.5421184e-13 8.0570813e-26 3.6641205e-10 2.9150538e-26 -7.3168864e-10)
(5.0630139e-10 7.1062039e-13 6.3449606e-26 5.0776784e-10 3.7144432e-26 -1.0140692e-09)
(6.7293964e-10 6.8085509e-13 -2.9105084e-25 6.7459485e-10 -1.3635936e-25 -1.3475345e-09)
(8.855027e-10 6.0159336e-13 2.1533449e-26 8.8721606e-10 -5.4338606e-27 -1.7727188e-09)
(1.14379e-09 4.4578001e-13 -5.9108197e-25 1.1452737e-09 -3.1316999e-25 -2.2890636e-09)
(1.4889178e-09 1.8715709e-13 4.3721016e-25 1.4896416e-09 2.7100819e-25 -2.9785595e-09)
(1.9233108e-09 -1.3554644e-13 -1.9100172e-25 1.92271e-09 -1.2839092e-25 -3.8460208e-09)
(2.4366257e-09 -4.9542014e-13 -3.5000279e-26 2.4341424e-09 -3.1710996e-26 -4.8707681e-09)
(3.0409873e-09 -9.0851998e-13 -7.1391946e-26 3.0359066e-09 -3.3952542e-26 -6.0768938e-09)
(3.7361211e-09 -1.3505687e-12 -2.9379241e-25 3.7278164e-09 -2.1313431e-25 -7.4639375e-09)
(4.5349567e-09 -1.8610933e-12 2.9825955e-25 4.5225727e-09 2.1507775e-25 -9.0575294e-09)
(5.4228469e-09 -2.3888861e-12 -2.5960519e-25 5.4059497e-09 -2.9743026e-25 -1.0828797e-08)
(6.411303e-09 -3.0179554e-12 2.611845e-24 6.389053e-09 -3.8993654e-24 -1.2800356e-08)
(7.4130619e-09 -3.5835135e-12 2.9056469e-24 7.3860654e-09 -4.5880982e-24 -1.4799127e-08)
(8.350269e-09 -4.090714e-12 -2.1827838e-25 8.3190434e-09 -1.5248354e-25 -1.6669312e-08)
(9.1670288e-09 -4.3868598e-12 2.5058598e-25 9.1329588e-09 1.741869e-25 -1.8299988e-08)
(9.9824522e-09 -4.7626866e-12 -1.0643015e-24 9.9443243e-09 -8.3897269e-25 -1.9926777e-08)
(1.0874135e-08 -5.1761114e-12 4.9388002e-24 1.0831208e-08 -6.1426686e-24 -2.1705343e-08)
(1.1767979e-08 -5.5486004e-12 4.2936148e-24 1.1719932e-08 -7.4597752e-24 -2.3487911e-08)
(1.2759977e-08 -5.9910295e-12 -1.5074382e-26 1.2705311e-08 -1.1132193e-27 -2.5465288e-08)
(1.3854079e-08 -6.427469e-12 2.1349258e-25 1.3791653e-08 1.7924726e-25 -2.7645733e-08)
(1.5187544e-08 -7.0457777e-12 -3.4006855e-25 1.5113931e-08 -2.7546684e-25 -3.0301475e-08)
(1.6805825e-08 -7.6619462e-12 1.0899809e-25 1.6718582e-08 8.8030261e-26 -3.3524408e-08)
(1.9285471e-08 -9.0418791e-12 1.1774951e-25 1.9172952e-08 -3.9064615e-25 -3.8458423e-08)
(2.3072422e-08 -1.1692752e-11 -1.7660786e-25 2.2921686e-08 -1.5202922e-25 -4.5994108e-08)
(2.805572e-08 -1.5947889e-11 4.2541383e-26 2.7858334e-08 3.9599005e-26 -5.5914054e-08)
(3.4743071e-08 -2.3354853e-11 4.1205454e-25 3.4484296e-08 -5.0413936e-25 -6.9227368e-08)
(4.3757104e-08 -3.5779105e-11 4.5301282e-25 4.3421068e-08 3.6536279e-25 -8.7178172e-08)
(5.6688772e-08 -5.8540176e-11 -5.752121e-25 5.6241281e-08 -1.8056987e-24 -1.1293005e-07)
(7.4898941e-08 -9.647699e-11 1.9954807e-24 7.4316084e-08 1.4170817e-24 -1.4921502e-07)
(1.0244974e-07 -1.6917212e-10 2.6382261e-24 1.0166504e-07 -5.5188514e-25 -2.0411478e-07)
(1.3854377e-07 -2.6886194e-10 1.7792523e-24 1.3761504e-07 1.0395524e-24 -2.7615881e-07)
(1.8414177e-07 -4.158474e-10 6.7672231e-23 1.8311552e-07 -1.3829333e-22 -3.6725728e-07)
(2.0406291e-07 -3.7090222e-10 7.2725312e-23 2.0345035e-07 -1.6543116e-22 -4.0751326e-07)
(1.7870033e-07 -1.9154774e-10 7.0264775e-24 1.7849874e-07 3.4699649e-24 -3.5719907e-07)
(1.1895838e-07 1.7962621e-11 1.6463456e-24 1.1896964e-07 8.3047988e-25 -2.3792801e-07)
(7.4728178e-08 4.2955182e-12 -8.5111381e-25 7.4729566e-08 -7.8873894e-26 -1.4945774e-07)
(3.3830675e-08 4.4747855e-11 -5.7001456e-26 3.3835988e-08 3.5895842e-26 -6.7666663e-08)
(2.6654172e-08 -2.6640987e-11 4.7465236e-26 2.6654063e-08 -4.9717988e-23 -5.3308235e-08)
(8.7865142e-09 1.7581991e-11 -7.1189276e-26 8.786139e-09 -1.6385814e-23 -1.7572653e-08)
(1.1273263e-06 6.8231872e-11 7.6674603e-25 1.127327e-06 -1.3053274e-26 -2.2546533e-06)
(8.7432146e-07 -1.4426077e-09 -4.7544126e-24 8.7433344e-07 -1.4688768e-21 -1.7486549e-06)
(1.5555744e-06 1.9676517e-09 -2.419075e-22 1.5553528e-06 -8.5099598e-21 -3.1109272e-06)
(1.0881204e-06 -1.0369955e-09 -3.7210023e-22 1.0884329e-06 -4.8441562e-21 -2.1765533e-06)
(7.5273047e-07 3.6055557e-10 -1.1578741e-22 7.5251821e-07 -6.4462584e-22 -1.5052487e-06)
(1.5506037e-07 3.3403402e-10 -1.3442688e-23 1.5474608e-07 -1.1080213e-22 -3.0980646e-07)
(6.5015935e-10 -1.6851273e-11 -2.2636546e-24 7.4731837e-10 -8.158372e-26 -1.3974777e-09)
(1.1674115e-07 -3.6928893e-10 -6.681074e-24 1.1769321e-07 3.1392851e-24 -2.3443436e-07)
(1.3472445e-07 -2.5807789e-10 -8.0887626e-23 1.3562706e-07 -8.1180584e-23 -2.7035151e-07)
(1.1935115e-07 -1.6266383e-10 -4.6864143e-23 1.2011062e-07 -8.3124754e-23 -2.3946177e-07)
(9.5079911e-08 -9.493483e-11 9.5520029e-24 9.5655751e-08 -6.6507958e-24 -1.9073566e-07)
(7.5969155e-08 -5.5579534e-11 5.8244182e-24 7.6396148e-08 -6.2781766e-25 -1.523653e-07)
(6.344353e-08 -3.5190721e-11 -4.7575587e-24 6.3776555e-08 2.1261204e-24 -1.2722008e-07)
(5.523961e-08 -2.4374951e-11 1.5586455e-22 5.5512271e-08 1.7263119e-22 -1.1075188e-07)
(4.9232869e-08 -1.8287078e-11 1.4497005e-22 4.9461534e-08 1.4778938e-22 -9.8694403e-08)
(4.4420794e-08 -1.4680569e-11 3.3068836e-24 4.4611706e-08 -3.663972e-24 -8.90325e-08)
(4.0315418e-08 -1.2214104e-11 -4.0765499e-23 4.0468392e-08 -3.8405043e-23 -8.0783809e-08)
(3.7548672e-08 -1.0822026e-11 -4.6420962e-23 3.7672577e-08 -2.8679189e-23 -7.522125e-08)
(3.6094874e-08 -9.8669631e-12 -2.0668526e-23 3.6198549e-08 -1.2617011e-23 -7.2293424e-08)
(3.5273799e-08 -8.8837016e-12 -1.830424e-23 3.5360577e-08 -1.5580633e-23 -7.0634375e-08)
(3.5186297e-08 -7.9921875e-12 -9.1940301e-24 3.5259714e-08 8.8956374e-24 -7.0446011e-08)
(3.5957623e-08 -7.2193573e-12 8.1008674e-24 3.6020632e-08 -6.469779e-24 -7.1978255e-08)
(3.7668046e-08 -6.6285696e-12 1.9455139e-23 3.7723544e-08 -1.4317209e-23 -7.539159e-08)
(4.0580844e-08 -6.4424424e-12 -7.5193885e-24 4.0633008e-08 6.6987353e-24 -8.1213853e-08)
(4.478852e-08 -6.7099257e-12 -5.7174216e-24 4.4841506e-08 3.3859563e-24 -8.9630026e-08)
(5.0480353e-08 -8.0184381e-12 6.9904743e-24 5.054252e-08 -5.9492973e-24 -1.0102287e-07)
(5.7294047e-08 -1.018359e-11 8.0976211e-24 5.7371993e-08 -8.1462974e-24 -1.1466604e-07)
(6.4578201e-08 -1.2744055e-11 2.5348103e-24 6.4673627e-08 -1.2403764e-24 -1.2925183e-07)
(7.2512759e-08 -1.6068162e-11 -4.1018021e-24 7.2628115e-08 1.637035e-24 -1.4514087e-07)
(8.1230045e-08 -2.0363643e-11 -1.7717772e-23 8.1367459e-08 1.4743491e-23 -1.625975e-07)
(9.0552823e-08 -2.5797422e-11 -7.3758684e-24 9.0713497e-08 7.8285427e-24 -1.8126632e-07)
(1.002748e-07 -3.2308847e-11 -1.0705963e-23 1.0045753e-07 5.2504062e-24 -2.0073233e-07)
(1.1007734e-07 -3.9756784e-11 -3.2772808e-23 1.1027856e-07 2.264387e-23 -2.203559e-07)
(1.195283e-07 -4.7204588e-11 8.2463044e-26 1.1973924e-07 2.8080739e-25 -2.3926753e-07)
(1.283114e-07 -5.3217514e-11 -2.9605134e-23 1.285186e-07 -1.2552154e-22 -2.5683001e-07)
(1.3678652e-07 -5.6188301e-11 -8.1429004e-23 1.3697481e-07 -1.0945235e-22 -2.7376133e-07)
(1.4634675e-07 -5.9968912e-11 -4.4892275e-23 1.4651846e-07 -1.225989e-22 -2.9286521e-07)
(1.5638613e-07 -6.1235313e-11 -2.7998682e-22 1.5653566e-07 -6.6138413e-22 -3.1292179e-07)
(1.657292e-07 -6.1608616e-11 -2.7163121e-22 1.6585686e-07 -5.6673827e-22 -3.3158606e-07)
(1.737191e-07 -5.5049037e-11 2.8148831e-22 1.7381504e-07 6.249964e-22 -3.4753414e-07)
(1.8055846e-07 -5.0984383e-11 2.0956591e-22 1.8063211e-07 6.9181499e-22 -3.6119057e-07)
(1.844725e-07 -3.1369825e-11 4.615843e-24 1.8450924e-07 3.2717469e-25 -3.6898174e-07)
(1.8804406e-07 -3.2167192e-11 1.6285038e-22 1.8807351e-07 7.4071569e-22 -3.7611757e-07)
(1.8704238e-07 7.6018754e-12 1.1559803e-22 1.8703725e-07 7.5332014e-22 -3.7407963e-07)
(1.9239737e-07 -3.0139029e-11 1.370084e-23 1.9241077e-07 1.1860982e-24 -3.8480814e-07)
(1.94547e-07 8.8202391e-11 -2.5670152e-23 1.9452694e-07 -3.8420227e-22 -3.8907394e-07)
(2.6207258e-07 -3.0598873e-11 -7.4425935e-24 2.6207398e-07 -5.2237113e-22 -5.2414656e-07)
(3.7332245e-07 1.6243217e-10 -2.7524725e-27 3.7332012e-07 -7.8049041e-28 -7.4664257e-07)
(4.4111664e-07 5.1967755e-11 -6.0640634e-28 4.4111619e-07 -4.2636636e-28 -8.8223283e-07)
(5.0406548e-07 1.2253698e-10 3.1611585e-27 5.0406474e-07 3.6539254e-28 -1.0081302e-06)
(5.4692746e-07 8.001981e-11 -9.2987321e-28 5.4692712e-07 1.1159243e-28 -1.0938546e-06)
(5.8434685e-07 1.1153604e-10 -1.1685756e-24 5.8434651e-07 -1.2231075e-21 -1.1686934e-06)
(6.1038906e-07 9.2900462e-11 -8.4237885e-25 6.1038886e-07 -1.2803249e-21 -1.2207779e-06)
(6.3131968e-07 1.0624822e-10 2.5424943e-27 6.3131953e-07 3.6913048e-29 -1.2626392e-06)
(6.4476341e-07 9.6966034e-11 -2.5807937e-27 6.4476332e-07 6.1918494e-30 -1.2895267e-06)
(6.5363834e-07 1.0136927e-10 -1.4134575e-27 6.5363829e-07 -5.3205817e-30 -1.3072766e-06)
(6.5714821e-07 9.5494474e-11 1.2420514e-25 6.571482e-07 -1.363416e-21 -1.3142964e-06)
(6.5680038e-07 9.5311117e-11 3.1679236e-25 6.568004e-07 -1.3605535e-21 -1.3136008e-06)
(6.522945e-07 9.0310942e-11 -2.4925526e-25 6.5229455e-07 6.7755008e-22 -1.3045891e-06)
(6.4444176e-07 8.761658e-11 6.1971835e-25 6.4444184e-07 -2.0417072e-21 -1.2888836e-06)
(6.3335986e-07 8.2692322e-11 1.5522593e-24 6.3335995e-07 -4.0136564e-21 -1.2667198e-06)
(6.195981e-07 7.8691552e-11 4.6317545e-25 6.1959821e-07 -1.3227777e-21 -1.2391963e-06)
(6.0338774e-07 7.3661339e-11 -4.5793428e-29 6.0338787e-07 5.4818123e-28 -1.2067756e-06)
(5.8514047e-07 6.9027556e-11 1.4478244e-28 5.851406e-07 4.521232e-30 -1.1702811e-06)
(5.6511988e-07 6.3953743e-11 3.0591353e-28 5.6512002e-07 1.4282051e-30 -1.1302399e-06)
(5.4365961e-07 5.9104003e-11 -1.0199369e-27 5.4365975e-07 -2.2567894e-29 -1.0873194e-06)
(5.2101733e-07 5.4136162e-11 1.1908535e-27 5.2101747e-07 2.2940467e-28 -1.0420348e-06)
(4.974739e-07 4.9359452e-11 6.4561144e-25 4.9747403e-07 -5.1981357e-22 -9.9494793e-07)
(4.73266e-07 4.4639214e-11 4.3903899e-24 4.7326614e-07 -3.9837356e-21 -9.4653214e-07)
(4.4862977e-07 4.013265e-11 3.766128e-24 4.4862989e-07 -3.3110574e-21 -8.9725966e-07)
(4.2377139e-07 3.5790103e-11 -3.1957044e-28 4.2377151e-07 8.8936783e-30 -8.4754291e-07)
(3.9888734e-07 3.1683685e-11 1.0842469e-28 3.9888745e-07 2.0801119e-30 -7.9777479e-07)
(3.7414656e-07 2.7798004e-11 -9.8806527e-30 3.7414667e-07 -4.5319011e-30 -7.4829323e-07)
(3.4970374e-07 2.4164324e-11 1.148454e-28 3.4970383e-07 5.489536e-30 -6.9940757e-07)
(3.2569088e-07 2.0770916e-11 -8.0218048e-29 3.2569097e-07 1.3461189e-28 -6.5138185e-07)
(3.0222359e-07 1.7648251e-11 -2.3378006e-29 3.0222367e-07 -1.3107396e-28 -6.0444726e-07)
(2.7941662e-07 1.4775787e-11 -5.7592148e-25 2.7941669e-07 2.9375003e-22 -5.5883332e-07)
(2.5736732e-07 1.2161833e-11 -5.5318071e-25 2.5736738e-07 2.7044733e-22 -5.147347e-07)
(2.361292e-07 9.7959691e-12 -1.0607511e-30 2.3612925e-07 -9.9487059e-29 -4.7225845e-07)
(2.1576372e-07 7.6603677e-12 6.4479624e-29 2.1576376e-07 1.8653939e-28 -4.3152748e-07)
(1.9632252e-07 5.7669052e-12 -1.384849e-28 1.9632255e-07 -8.9676854e-29 -3.9264508e-07)
(1.7783693e-07 4.0948327e-12 4.5545186e-25 1.7783695e-07 -1.8790511e-22 -3.5567387e-07)
(1.6033651e-07 2.6221885e-12 4.2883747e-25 1.6033652e-07 -1.6946034e-22 -3.2067303e-07)
(1.4383656e-07 1.3668311e-12 1.0929121e-28 1.4383657e-07 -3.1165722e-29 -2.8767314e-07)
(1.2834235e-07 2.78728e-13 1.8063527e-24 1.2834235e-07 -8.1847261e-22 -2.5668469e-07)
(1.1385689e-07 -6.2841457e-13 1.6846176e-24 1.1385689e-07 -7.2705933e-22 -2.2771378e-07)
(1.0037309e-07 -1.3780094e-12 -3.9961825e-29 1.0037308e-07 -2.1615923e-29 -2.0074617e-07)
(8.7878541e-08 -1.9817719e-12 -5.3586688e-29 8.7878526e-08 2.0686613e-29 -1.7575707e-07)
(7.6354009e-08 -2.4485639e-12 8.8538021e-25 7.6353989e-08 -3.2602878e-22 -1.52708e-07)
(6.5780542e-08 -2.7990494e-12 8.1064533e-25 6.5780517e-08 -2.8137746e-22 -1.3156106e-07)
(5.6130959e-08 -3.0322364e-12 6.0596607e-29 5.6130931e-08 8.2985687e-31 -1.1226189e-07)
(4.7379447e-08 -3.1750242e-12 2.0972252e-25 4.7379415e-08 -5.1254261e-23 -9.4758862e-08)
(3.9493891e-08 -3.2203948e-12 1.8863897e-25 3.9493857e-08 -4.2896362e-23 -7.8987749e-08)
(3.2442138e-08 -3.1950724e-12 7.0376266e-29 3.2442101e-08 5.6449411e-32 -6.4884238e-08)
(2.6192718e-08 -3.0962825e-12 9.5322601e-30 2.619268e-08 3.1462707e-31 -5.2385398e-08)
(2.0707566e-08 -2.9403127e-12 -2.4676096e-29 2.0707525e-08 -2.3080912e-31 -4.1415091e-08)
(1.5952384e-08 -2.7318855e-12 1.1417207e-25 1.5952342e-08 -1.7848507e-23 -3.1904727e-08)
(1.1892341e-08 -2.4786112e-12 9.7809632e-26 1.1892297e-08 -1.3471272e-23 -2.3784638e-08)
(8.4914512e-09 -2.1863151e-12 -6.9141195e-30 8.4914071e-09 1.547092e-31 -1.6982858e-08)
(5.7168154e-09 -1.8590225e-12 -2.6596252e-30 5.7167708e-09 -1.7624485e-31 -1.1433586e-08)
(3.5362203e-09 -1.5068928e-12 -1.6382309e-30 3.5361754e-09 2.4861122e-32 -7.0723957e-09)
(1.9136431e-09 -1.1357434e-12 -3.4699468e-32 1.9135984e-09 -1.216226e-31 -3.8272415e-09)
(8.1002803e-10 -7.543329e-13 -2.9198637e-26 8.0998373e-10 1.1543149e-24 -1.6200118e-09)
(1.8566014e-10 -3.6700639e-13 5.8903772e-27 1.856164e-10 -1.9716202e-25 -3.7127654e-10)
(1.3044889e-12 2.2349538e-14 7.9507775e-27 1.2614165e-12 7.3756539e-27 -2.5659054e-12)
(2.199347e-10 4.1145145e-13 -1.7524979e-30 2.1989234e-10 2.1154112e-31 -4.3982704e-10)
(8.0698397e-10 7.9863437e-13 -9.0687288e-27 8.0694238e-10 -5.0775866e-25 -1.6139264e-09)
(1.7303504e-09 1.1819589e-12 1.4916068e-29 1.7303097e-09 5.025005e-28 -3.4606601e-09)
(2.9594214e-09 1.5593819e-12 2.337877e-26 2.9593816e-09 2.4276011e-24 -5.918803e-09)
(4.4641287e-09 1.9298059e-12 -3.4701155e-29 4.4640898e-09 6.2692982e-31 -8.9282185e-09)
(6.2162986e-09 2.2898743e-12 7.3549548e-30 6.2162608e-09 1.1574268e-30 -1.2432559e-08)
(8.188495e-09 2.6408204e-12 1.5531741e-29 8.1884583e-09 -4.0133167e-30 -1.6376953e-08)
(1.0353963e-08 2.9791691e-12 2.7770223e-29 1.0353928e-08 1.9770676e-30 -2.0707891e-08)
(1.2687681e-08 3.3046967e-12 3.7600807e-29 1.2687646e-08 2.2290567e-30 -2.5375327e-08)
(1.5164381e-08 3.6183868e-12 -5.4309426e-29 1.5164348e-08 -4.4391821e-30 -3.0328729e-08)
(1.7760678e-08 3.9169763e-12 3.5461102e-29 1.7760646e-08 1.8282001e-30 -3.5521324e-08)
(2.0454279e-08 4.201926e-12 1.4363565e-30 2.0454248e-08 2.8608484e-30 -4.0908527e-08)
(2.3221905e-08 4.4733874e-12 -2.7576173e-28 2.3221875e-08 9.1302585e-30 -4.644378e-08)
(2.6042917e-08 4.7285209e-12 -3.7198996e-29 2.6042889e-08 7.7206251e-31 -5.2085806e-08)
(2.8897013e-08 4.9701902e-12 5.2468347e-28 2.8896986e-08 -1.7255424e-29 -5.7793999e-08)
(3.1763031e-08 5.1973355e-12 5.727446e-26 3.1763005e-08 3.0544948e-23 -6.3526036e-08)
(3.462201e-08 5.4103326e-12 5.7024237e-26 3.4621986e-08 3.3423868e-23 -6.9243996e-08)
(3.7455658e-08 5.6072191e-12 -5.6398796e-26 3.7455635e-08 -3.6195273e-23 -7.4911293e-08)
(4.0243906e-08 5.793828e-12 -5.4908069e-26 4.0243885e-08 -3.9020262e-23 -8.048779e-08)
(4.2969519e-08 5.9621279e-12 1.4120724e-28 4.2969499e-08 -2.2805072e-30 -8.5939019e-08)
(4.5614832e-08 6.121375e-12 5.1365153e-26 4.5614814e-08 4.430751e-23 -9.1229646e-08)
(4.8161364e-08 6.2633126e-12 4.8234644e-26 4.8161347e-08 4.6914647e-23 -9.6322711e-08)
(5.0591509e-08 6.3992238e-12 -9.055977e-26 5.0591493e-08 -9.8560933e-23 -1.01183e-07)
(5.2889561e-08 6.512229e-12 -8.4652454e-26 5.2889547e-08 -1.0331012e-22 -1.0577911e-07)
(5.5035109e-08 6.6280037e-12 -3.592051e-28 5.5035096e-08 -2.5454097e-29 -1.100702e-07)
(5.7013585e-08 6.7109133e-12 1.5661072e-25 5.7013573e-08 2.8869388e-22 -1.1402716e-07)