/*--------------------------------*- C++ -*----------------------------------*\
| =========                 |                                                 |
| \\      /  F ield         | OpenFOAM: The Open Source CFD Toolbox           |
|  \\    /   O peration     | Version:  2.4.0                                 |
|   \\  /    A nd           | Web:      www.OpenFOAM.org                      |
|    \\/     M anipulation  |                                                 |
\*---------------------------------------------------------------------------*/
FoamFile
{
    version     2.0;
    format      ascii;
    class       volSymmTensorField;
    location    "8247";
    object      T06;
}
// * * * * * * * * * * * * * * * * * * * * * * * * * * * * * * * * * * * * * //

dimensions      [0 0 0 0 0 0 0];

internalField   nonuniform List<symmTensor> 
32000
(
(2.4217354e-13 -2.8719838e-11 4.9936523e-32 -2.4324471e-13 -5.8425607e-30 -2.142336e-15)
(-1.7801107e-14 -1.708952e-11 -1.0626549e-26 1.4952554e-14 6.9633671e-31 -5.6971067e-15)
(-2.7853455e-12 -5.0189647e-11 -3.121707e-26 2.7903474e-12 8.2385648e-28 1.0003883e-14)
(-4.0290355e-12 -2.5974174e-11 -8.1293812e-27 4.0273455e-12 5.5905611e-28 -3.3800555e-15)
(-4.3455644e-12 -1.4258172e-11 -4.5638009e-27 4.3464309e-12 6.2310621e-28 1.7329879e-15)
(-4.151977e-13 -8.2267549e-13 -2.6433697e-28 4.1478258e-13 9.444978e-29 -8.3024224e-16)
(8.0152998e-15 8.8233823e-15 3.6966716e-30 -8.049436e-15 -9.5738879e-32 -6.8272458e-17)
(1.0423888e-12 8.3437553e-13 -9.3689092e-30 -1.0432517e-12 -2.1054467e-29 -1.7258645e-15)
(1.2328177e-12 7.0950662e-13 3.3591069e-28 -1.233442e-12 -1.5993346e-28 -1.2486581e-15)
(1.0510607e-12 4.5088956e-13 2.3516028e-28 -1.0515442e-12 -1.7408495e-28 -9.6696299e-16)
(7.5370859e-13 2.4818119e-13 7.5735368e-30 -7.5401984e-13 1.0910118e-29 -6.2248546e-16)
(5.3894457e-13 1.4002294e-13 4.5374154e-30 -5.391442e-13 6.1809646e-30 -3.9926252e-16)
(4.109522e-13 8.6725609e-14 2.068116e-29 -4.1109112e-13 2.1042138e-29 -2.7785162e-16)
(3.3321686e-13 5.9517652e-14 -7.2585391e-30 -3.33322e-13 -9.0725147e-30 -2.1027761e-16)
(2.7938096e-13 4.4627257e-14 -5.2679737e-30 -2.7946343e-13 -6.2757412e-30 -1.649384e-16)
(2.3811787e-13 3.6535224e-14 6.2095195e-30 -2.3818307e-13 9.5819162e-30 -1.3041077e-16)
(2.0408919e-13 3.2492623e-14 9.0418475e-29 -2.041391e-13 -4.5947342e-29 -9.9811071e-17)
(1.8168758e-13 3.1668781e-14 7.1787035e-29 -1.8172609e-13 -5.176186e-29 -7.7019777e-17)
(1.6981861e-13 3.2284519e-14 4.1608903e-29 -1.6985024e-13 -1.3072149e-29 -6.3264043e-17)
(1.6266988e-13 3.3283619e-14 3.9005915e-29 -1.626961e-13 -1.3717694e-29 -5.2438923e-17)
(1.6076071e-13 3.5006204e-14 1.5043325e-29 -1.6078273e-13 1.8865954e-29 -4.4055781e-17)
(1.6488546e-13 3.7826292e-14 -1.0311921e-29 -1.6490459e-13 -1.2567809e-29 -3.8263033e-17)
(1.7570976e-13 4.206843e-14 1.597886e-30 -1.7572694e-13 3.7006396e-30 -3.4353734e-17)
(1.9564849e-13 4.8496511e-14 6.074572e-30 -1.9566514e-13 9.3464153e-30 -3.3293484e-17)
(2.2635326e-13 5.7599683e-14 9.5362816e-30 -2.2637109e-13 1.5188065e-29 -3.5664031e-17)
(2.7097737e-13 7.0298049e-14 -9.1284167e-30 -2.7099918e-13 -1.1876442e-29 -4.3617231e-17)
(3.283565e-13 8.6303424e-14 -2.1064481e-29 -3.2838595e-13 -3.1720346e-29 -5.8889192e-17)
(3.9329374e-13 1.0563843e-13 -2.8831042e-29 -3.9333235e-13 -3.6972718e-29 -7.7215629e-17)
(4.6767017e-13 1.3098133e-13 1.1281071e-29 -4.6771958e-13 9.4031713e-30 -9.8820411e-17)
(5.532339e-13 1.6478274e-13 -1.1872135e-29 -5.5329671e-13 -1.0150682e-29 -1.2561159e-16)
(6.4813817e-13 2.0904632e-13 -1.4377967e-29 -6.4821622e-13 -1.2055192e-29 -1.5609253e-16)
(7.4937739e-13 2.6599436e-13 2.0145365e-29 -7.4947187e-13 1.8389467e-29 -1.8895738e-16)
(8.5145726e-13 3.3747783e-13 1.4336774e-29 -8.5156758e-13 2.3039222e-29 -2.2062518e-16)
(9.4588825e-13 4.2428941e-13 -1.7597374e-30 -9.460111e-13 9.9348203e-31 -2.4569351e-16)
(1.0238976e-12 5.267775e-13 2.9254528e-28 -1.0240256e-12 -2.5200618e-28 -2.5595888e-16)
(1.0847576e-12 6.4820453e-13 3.3857479e-28 -1.0848821e-12 -2.5932644e-28 -2.4904363e-16)
(1.1434458e-12 7.9963024e-13 4.0247748e-28 -1.1435645e-12 -1.5982386e-28 -2.3744515e-16)
(1.1895718e-12 9.7527313e-13 4.3939094e-28 -1.1896866e-12 -2.1098729e-28 -2.2947508e-16)
(1.2037517e-12 1.1625729e-12 3.1517259e-29 -1.2038557e-12 5.9821468e-29 -2.0816001e-16)
(1.1747203e-12 1.3486351e-12 -2.0058288e-29 -1.1748101e-12 -3.3404085e-29 -1.7960714e-16)
(1.1046001e-12 1.5292135e-12 3.3678992e-30 -1.104669e-12 1.2813131e-29 -1.377056e-16)
(9.7661988e-13 1.6672019e-12 -1.7962556e-30 -9.766689e-13 1.6766496e-29 -9.8046865e-17)
(8.2222209e-13 1.7939351e-12 -1.6187851e-30 -8.2224125e-13 -1.368006e-29 -3.8307104e-17)
(6.1611222e-13 1.8233111e-12 2.2443251e-30 -6.1612398e-13 -3.7319403e-30 -2.3516712e-17)
(4.3074218e-13 1.9381988e-12 -5.1292481e-30 -4.3070975e-13 -1.6869962e-29 6.4868632e-17)
(2.1404445e-13 1.9293437e-12 1.3761558e-27 -2.140588e-13 -7.6118114e-29 -2.8694951e-17)
(5.1600628e-14 3.1460837e-12 2.2378541e-27 -5.1390826e-14 -1.7132815e-29 4.1960447e-16)
(1.4489611e-14 5.6444757e-12 -1.7824818e-32 -1.4351633e-14 -3.5301375e-33 2.7595591e-16)
(1.1305532e-14 7.336353e-12 -8.9414433e-34 -1.1054322e-14 2.4327369e-32 5.0242028e-16)
(1.001822e-14 9.0919379e-12 7.7441442e-34 -9.8199216e-15 -3.0809617e-32 3.965975e-16)
(8.1116765e-15 1.0343003e-11 -8.4648044e-34 -7.8496706e-15 1.2592338e-32 5.2401195e-16)
(6.815694e-15 1.1506713e-11 7.6105767e-34 -6.5784959e-15 1.4002872e-32 4.7439617e-16)
(5.3977216e-15 1.2340194e-11 -1.0491128e-33 -5.1290702e-15 -2.5186523e-32 5.3730287e-16)
(4.2476753e-15 1.3041952e-11 1.4860064e-33 -3.9923614e-15 8.5597738e-33 5.1062792e-16)
(3.1008272e-15 1.3508175e-11 -9.1652219e-35 -2.8339718e-15 7.2615168e-34 5.3371084e-16)
(2.1110874e-15 1.3836328e-11 -4.5417518e-35 -1.8548239e-15 5.4334084e-33 5.1252685e-16)
(1.1787887e-15 1.3988458e-11 9.9372041e-27 -9.2288435e-16 3.1041423e-32 5.1180879e-16)
(3.4873426e-16 1.4016816e-11 9.9652132e-27 -1.0426046e-16 3.2272028e-31 4.889476e-16)
(-4.2764348e-16 1.3907909e-11 -4.937967e-27 6.6419739e-16 -3.0060172e-31 4.7310781e-16)
(-1.1135204e-15 1.3690825e-11 -4.86455e-27 1.3365706e-15 -3.8889007e-31 4.4610037e-16)
(-1.7214794e-15 1.3369285e-11 -9.4976768e-27 1.9322561e-15 -9.8112726e-31 4.2155349e-16)
(-2.2424218e-15 1.2964115e-11 -9.2164471e-27 2.4382928e-15 -1.1592283e-30 3.9174198e-16)
(-2.684363e-15 1.2484471e-11 1.2563993e-35 2.8658214e-15 1.6801942e-33 3.6291677e-16)
(-3.0461249e-15 1.1946479e-11 -1.5482241e-36 3.2121363e-15 -2.1325063e-33 3.3202271e-16)
(-3.3337515e-15 1.1360772e-11 -5.8459294e-34 3.4847722e-15 3.4883329e-33 3.0204137e-16)
(-3.5501938e-15 1.0740432e-11 1.1061245e-33 3.6861193e-15 -2.8765232e-33 2.7185091e-16)
(-3.7012003e-15 1.0095591e-11 -9.9331205e-34 3.8226665e-15 -3.2527073e-34 2.4293232e-16)
(-3.7915279e-15 9.4368892e-12 3.3508065e-27 3.8989891e-15 7.6786332e-31 2.149225e-16)
(-3.8273716e-15 8.7730943e-12 6.2347468e-27 3.9216462e-15 1.5327696e-30 1.8854916e-16)
(-3.8144949e-15 8.1125541e-12 2.8847039e-27 3.896357e-15 7.5116139e-31 1.6372427e-16)
(-3.7589972e-15 7.4622148e-12 3.6726686e-34 3.8293955e-15 -2.8158375e-33 1.4079665e-16)
(-3.6671266e-15 6.8282979e-12 -1.1504501e-36 3.7269876e-15 2.3818967e-33 1.1972204e-16)
(-3.5451576e-15 6.215766e-12 3.0427152e-34 3.5954554e-15 -2.0322249e-33 1.0059557e-16)
(-3.3987469e-15 5.6287592e-12 -2.875335e-34 3.440434e-15 1.0840207e-33 8.3374076e-17)
(-3.2334019e-15 5.0704219e-12 -3.8171907e-37 3.2674252e-15 -7.4567648e-34 6.8046486e-17)
(-3.0527411e-15 4.5431068e-12 5.6563638e-36 3.0799949e-15 3.2568034e-35 5.4507602e-17)
(-2.8602841e-15 4.0487862e-12 -1.437741e-27 2.8816774e-15 -5.2650637e-31 4.2786559e-17)
(-2.6625725e-15 3.5886831e-12 -1.2748994e-27 2.6788999e-15 -4.875039e-31 3.2654796e-17)
(-2.463265e-15 3.1627857e-12 1.5867449e-34 2.4752544e-15 3.801199e-35 2.3978818e-17)
(-2.2637199e-15 2.7710793e-12 -1.3309034e-34 2.2720828e-15 1.7816649e-34 1.6725677e-17)
(-2.0671051e-15 2.4131486e-12 1.1662665e-34 2.072455e-15 -1.4678885e-34 1.069977e-17)
(-1.8755021e-15 2.0880246e-12 7.415003e-28 1.8783978e-15 3.3503003e-31 5.7914124e-18)
(-1.6906154e-15 1.7946273e-12 6.3752196e-28 1.691569e-15 3.0164088e-31 1.9070993e-18)
(-1.5141713e-15 1.5315215e-12 -3.892023e-35 1.5136009e-15 4.5369109e-35 -1.1408823e-18)
(-1.346928e-15 1.2970759e-12 2.8934356e-35 1.3452243e-15 1.0231916e-34 -3.4073954e-18)
(-1.1898305e-15 1.0896171e-12 1.1409945e-36 1.1873102e-15 -3.0706986e-34 -5.0405135e-18)
(-1.0434057e-15 9.073123e-13 2.6071954e-35 1.0403455e-15 -7.0468451e-35 -6.12039e-18)
(-9.0802701e-16 7.4829533e-13 -2.1280668e-35 9.0465305e-16 1.3906176e-34 -6.7479158e-18)
(-7.837294e-16 6.1065638e-13 -1.0428615e-36 7.8022436e-16 1.2165678e-34 -7.0100746e-18)
(-6.7043674e-16 4.9255564e-13 8.8068588e-37 6.6695179e-16 -3.3741087e-34 -6.9698981e-18)
(-5.6795167e-16 3.9213063e-13 3.305791e-36 5.6459733e-16 2.6780283e-34 -6.7086813e-18)
(-4.7593867e-16 3.0762098e-13 1.0934602e-28 4.7280573e-16 8.1635486e-32 -6.265871e-18)
(-3.9406618e-16 2.3729304e-13 8.4360168e-29 3.9120873e-16 6.7594541e-32 -5.7149093e-18)
(-3.2175463e-16 1.7951397e-13 -2.8217591e-36 3.1921527e-16 -9.7750046e-35 -5.0787346e-18)
(-2.5858981e-16 1.3275582e-13 1.1557614e-36 2.5638588e-16 8.714204e-36 -4.4078713e-18)
(-2.0398665e-16 9.5539779e-14 -1.1210732e-37 2.0212267e-16 5.707059e-36 -3.7279607e-18)
(-1.5730221e-16 6.6523413e-14 2.3647331e-29 1.557703e-16 2.6592921e-32 -3.0638271e-18)
(-1.1796829e-16 4.4459616e-14 1.5805148e-29 1.1674993e-16 1.9880344e-32 -2.436705e-18)
(-8.5358691e-17 2.8194382e-14 -4.6349852e-38 8.4427623e-17 1.0295965e-35 -1.862137e-18)
(-5.8873319e-17 1.668523e-14 -6.080166e-38 5.8197439e-17 -7.1395669e-37 -1.35176e-18)
(-3.8025761e-17 8.9821966e-15 -1.5223381e-38 3.7567985e-17 1.0143916e-36 -9.1555244e-19)
(-2.2345382e-17 4.2092432e-15 4.7569868e-38 2.2063867e-17 3.1042149e-37 -5.6302981e-19)
(-1.128407e-17 1.5747504e-15 -5.5981865e-31 1.1135644e-17 -1.8739975e-33 -2.9685326e-19)
(-4.2625485e-18 3.8162091e-16 -1.3565715e-31 4.2041064e-18 -7.0545867e-34 -1.1688437e-19)
(-7.0888695e-19 2.7025348e-17 2.3576304e-40 6.9876916e-19 5.4281816e-38 -2.0235588e-20)
(-9.7017543e-20 -1.4289632e-18 -1.12233e-40 9.557818e-20 3.8448466e-38 -2.8787247e-21)
(-1.9574342e-18 -1.3517987e-16 -4.8014663e-32 1.9272937e-18 3.197584e-34 -6.0280972e-20)
(-5.8751851e-18 -7.3407726e-16 2.5297352e-34 5.7813771e-18 -9.4961497e-37 -1.8761599e-19)
(-1.1473498e-17 -2.094212e-15 7.44405e-31 1.1283678e-17 -1.8808435e-33 -3.7963958e-19)
(-1.840257e-17 -4.4523627e-15 2.4062233e-37 1.808741e-17 2.5426898e-35 -6.3032043e-19)
(-2.6351475e-17 -7.9929381e-15 1.5463196e-37 2.5884316e-17 -2.7218443e-35 -9.3431662e-19)
(-3.5026675e-17 -1.285146e-14 -4.6426853e-37 3.4384344e-17 5.2565805e-35 -1.2846631e-18)
(-4.4166635e-17 -1.911791e-14 -1.2710407e-37 4.3328759e-17 1.7025754e-35 -1.6757529e-18)
(-5.3534605e-17 -2.6844702e-14 -1.2746975e-36 5.2483851e-17 -5.4193016e-35 -2.1015091e-18)
(-6.2901371e-17 -3.6043461e-14 1.7777579e-36 6.1623997e-17 -9.7944902e-35 -2.5547481e-18)
(-7.2092418e-17 -4.6696486e-14 1.1703027e-36 7.0576754e-17 7.3988051e-35 -3.031329e-18)
(-8.0920222e-17 -5.8758771e-14 -2.8137131e-36 7.9157944e-17 2.377702e-35 -3.5245559e-18)
(-8.9211659e-17 -7.2149561e-14 -1.4690817e-36 8.7197816e-17 -1.7148544e-34 -4.0276858e-18)
(-9.6861792e-17 -8.6773948e-14 5.6658313e-36 9.4592377e-17 -7.9787089e-35 -4.5388295e-18)
(-1.0372036e-16 -1.0251539e-13 -4.0989689e-37 1.0119519e-16 6.4055383e-36 -5.0503354e-18)
(-1.0966182e-16 -1.1922875e-13 4.2355526e-29 1.0688276e-16 -1.6654515e-32 -5.5581283e-18)
(-1.1463127e-16 -1.3676238e-13 4.8566215e-29 1.1160186e-16 -1.814484e-32 -6.0588203e-18)
(-1.1851175e-16 -1.5495275e-13 -5.5047378e-29 1.1523728e-16 1.8915808e-32 -6.5489393e-18)
(-1.2120802e-16 -1.7360658e-13 -6.1648972e-29 1.1769778e-16 1.8247846e-32 -7.0204791e-18)
(-1.22711e-16 -1.9253763e-13 -9.2221669e-36 1.1897176e-16 1.7007909e-34 -7.4784821e-18)
(-1.2292133e-16 -2.1154551e-13 7.5154185e-29 1.1896615e-16 -1.8385713e-32 -7.9103529e-18)
(-1.2177168e-16 -2.3041232e-13 8.1818959e-29 1.1761149e-16 -1.8106798e-32 -8.3203847e-18)
(-1.1928389e-16 -2.489186e-13 -1.7694175e-28 1.1493422e-16 3.4770629e-32 -8.6993465e-18)
(-1.1537207e-16 -2.6685611e-13 -1.8959777e-28 1.1084409e-16 3.2717722e-32 -9.0559681e-18)
(-1.0999979e-16 -2.839692e-13 -8.8386048e-36 1.0531617e-16 -6.4119619e-35 -9.3672348e-18)
(-1.0319161e-16 -3.0005223e-13 1.0669336e-28 9.8359958e-17 -1.4457974e-32 -9.6633044e-18)
(-9.4906067e-17 -3.1484343e-13 1.1189089e-28 8.9957448e-17 -1.216269e-32 -9.8972376e-18)
(-8.5087594e-17 -3.2814011e-13 -4.8067487e-36 8.0025811e-17 -6.6757209e-34 -1.0123566e-17)
(-7.3841419e-17 -3.3964344e-13 2.1230906e-35 6.870848e-17 2.371894e-34 -1.0265877e-17)
(-6.1023643e-17 -3.4921358e-13 4.0920999e-29 5.5810333e-17 1.4362962e-30 -1.0426619e-17)
(-4.6839296e-17 -3.564667e-13 1.6873515e-28 4.1614616e-17 2.3655396e-27 -1.0449361e-17)
(-3.1064962e-17 -3.6138599e-13 8.6518306e-29 2.5786577e-17 2.4100648e-27 -1.055677e-17)
(-1.4264951e-17 -3.6344001e-13 -8.5709882e-29 9.0541984e-18 -3.2220417e-30 -1.0421506e-17)
(3.9736622e-18 -3.6290077e-13 -4.3701551e-29 -9.2318847e-18 -2.4626881e-27 -1.0516445e-17)
(2.2961155e-17 -3.5896382e-13 4.2918509e-29 -2.8038784e-17 -2.4680447e-27 -1.0155257e-17)
(4.4237773e-17 -3.5231689e-13 4.2803578e-29 -4.9383323e-17 1.7144907e-30 -1.0291102e-17)
(6.56431e-17 -3.4141476e-13 4.3833969e-35 -7.0415157e-17 1.1423988e-33 -9.5441146e-18)
(8.9655132e-17 -3.2796529e-13 -4.7042661e-37 -9.4582675e-17 3.3490221e-34 -9.855087e-18)
(1.1124307e-16 -3.0923467e-13 -7.4607951e-36 -1.1549602e-16 -7.7526453e-34 -8.5059032e-18)
(1.3637602e-16 -2.8900577e-13 -5.3532377e-35 -1.4101492e-16 3.5244834e-34 -9.277809e-18)
(1.5521928e-16 -2.6215684e-13 3.0281613e-35 -1.5868393e-16 -1.0307719e-33 -6.9293053e-18)
(1.7983545e-16 -2.3606462e-13 -5.0507193e-37 -1.8413269e-16 1.4384693e-33 -8.594469e-18)
(1.9074512e-16 -2.0155899e-13 3.6487983e-35 -1.9309531e-16 -1.0471264e-33 -4.7003785e-18)
(2.1265935e-16 -1.7188524e-13 -1.6867373e-35 -2.1656043e-16 1.5315992e-33 -7.8021485e-18)
(2.0752818e-16 -1.3160428e-13 -1.4671763e-35 -2.084374e-16 -4.044232e-34 -1.8184343e-18)
(2.2248981e-16 -1.0226024e-13 1.1653813e-36 -2.2583081e-16 -1.9087183e-34 -6.6819925e-18)
(1.8556696e-16 -6.1400375e-14 1.9259308e-36 -1.8502092e-16 5.1759448e-35 1.0920909e-18)
(1.8681435e-16 -3.8615808e-14 6.6160801e-34 -1.8907036e-16 -6.222932e-34 -4.5120286e-18)
(2.1567776e-16 -9.5517886e-15 1.8826362e-32 -2.1471357e-16 1.5139836e-32 1.9283847e-18)
(1.9411563e-16 -1.6889253e-15 -1.9310852e-32 -1.9425919e-16 3.4419628e-31 -2.8710866e-19)
(5.7248704e-16 -2.5934336e-15 -1.0988253e-31 -5.717998e-16 9.0593684e-31 1.3744862e-18)
(1.022267e-15 -3.0549101e-15 9.5691276e-32 -1.0213946e-15 -5.7617275e-31 1.7446586e-18)
(2.9027519e-15 -6.3845264e-15 -2.9689389e-31 -2.9002716e-15 1.2735944e-30 4.960593e-18)
(6.0740843e-15 -1.0436879e-14 -2.4781018e-31 -6.0702132e-15 8.0365268e-31 7.7421965e-18)
(1.2981118e-14 -1.8086196e-14 -1.5052166e-30 -1.2974264e-14 5.050113e-30 1.3707989e-17)
(2.3779321e-14 -2.7439706e-14 1.0184901e-30 -2.376977e-14 -2.6478755e-30 1.9102819e-17)
(4.2521977e-14 -4.1260047e-14 7.675936e-31 -4.250872e-14 -2.7611468e-30 2.6512999e-17)
(7.0068026e-14 -5.7699389e-14 -6.2029321e-30 -7.0051986e-14 1.3041075e-29 3.2080622e-17)
(1.1206326e-13 -7.8754578e-14 1.0682573e-30 -1.1204529e-13 -4.0776876e-31 3.5945547e-17)
(1.7226357e-13 -1.0356488e-13 -2.0222947e-29 -1.7224668e-13 3.3557273e-29 3.3775711e-17)
(2.6502816e-13 -1.370929e-13 1.7626983e-29 -2.6501909e-13 -2.9502006e-29 1.8139494e-17)
(3.9914126e-13 -1.8005561e-13 -9.2105279e-30 -3.991496e-13 1.4849744e-29 -1.6677788e-17)
(5.7973311e-13 -2.3120302e-13 -1.7738681e-30 -5.7977118e-13 3.6248906e-30 -7.6134849e-17)
(8.1913624e-13 -2.9269228e-13 -5.3264673e-30 -8.1922207e-13 5.3462183e-30 -1.7164708e-16)
(1.1262415e-12 -3.6585165e-13 -2.2588908e-29 -1.1263955e-12 3.1051502e-29 -3.0791044e-16)
(1.5163149e-12 -4.5500285e-13 2.6082947e-29 -1.5165661e-12 -3.4005558e-29 -5.022983e-16)
(1.9918611e-12 -5.6209982e-13 -2.1541065e-29 -1.992234e-12 4.5476632e-29 -7.4586237e-16)
(2.5676512e-12 -6.9496403e-13 4.9035446e-28 -2.5681835e-12 4.2711923e-28 -1.0647394e-15)
(3.1967362e-12 -8.466054e-13 5.9332787e-28 -3.1974298e-12 5.5017094e-28 -1.3871383e-15)
(3.8247414e-12 -9.9959602e-13 -2.7288656e-29 -3.8255921e-12 3.2065061e-29 -1.7013441e-15)
(4.4041614e-12 -1.1312785e-12 3.3021534e-29 -4.4051328e-12 -3.8291998e-29 -1.9428258e-15)
(5.0133475e-12 -1.2491099e-12 -1.4341502e-28 -5.0144798e-12 1.8526488e-28 -2.2646023e-15)
(5.7106652e-12 -1.3732246e-12 1.1251795e-27 -5.7119931e-12 8.6957322e-28 -2.6556561e-15)
(6.4429357e-12 -1.483499e-12 1.0991403e-27 -6.4444782e-12 1.1840018e-27 -3.0849787e-15)
(7.2916632e-12 -1.5928085e-12 -2.8329402e-30 -7.2934859e-12 8.4412752e-31 -3.645467e-15)
(8.2700498e-12 -1.6965779e-12 3.5233526e-29 -8.2722126e-12 -4.4502174e-29 -4.3257334e-15)
(9.5160314e-12 -1.8137384e-12 -6.019199e-29 -9.5186942e-12 7.1282661e-29 -5.3254808e-15)
(1.1104893e-11 -1.9407334e-12 2.0668355e-29 -1.1108203e-11 -2.3661186e-29 -6.6201203e-15)
(1.367865e-11 -2.1848931e-12 4.2709278e-29 -1.3683211e-11 8.8227238e-29 -9.1231621e-15)
(1.7907308e-11 -2.7584223e-12 -3.9743825e-29 -1.7913986e-11 4.6550238e-29 -1.3355741e-14)
(2.3981871e-11 -3.8466986e-12 1.0336428e-29 -2.3991523e-11 -1.3275192e-29 -1.9304746e-14)
(3.2939699e-11 -5.9039436e-12 1.5929734e-28 -3.2953825e-11 1.3665127e-28 -2.8253272e-14)
(4.6273098e-11 -9.7924549e-12 1.3284314e-28 -4.6293814e-11 -1.6329237e-28 -4.1431372e-14)
(6.7497469e-11 -1.7565585e-11 -4.1787823e-29 -6.7529218e-11 7.7974518e-28 -6.3496847e-14)
(1.0063035e-10 -3.3168504e-11 6.8644804e-28 -1.006788e-10 -9.3305324e-28 -9.690286e-14)
(1.5579848e-10 -6.6936645e-11 1.4617946e-27 -1.5587737e-10 -2.9463829e-28 -1.5778961e-13)
(2.3119605e-10 -1.3349361e-10 6.5696025e-28 -2.3131134e-10 -1.1531545e-27 -2.3058789e-13)
(3.18501e-10 -2.5755411e-10 1.0373788e-25 -3.1866472e-10 4.8448096e-26 -3.2744363e-13)
(3.0521661e-10 -3.6909529e-10 1.3616495e-25 -3.0534225e-10 3.8821701e-26 -2.5128033e-13)
(1.8315698e-10 -3.4776777e-10 1.475929e-28 -1.8320991e-10 -5.7418241e-27 -1.0585882e-13)
(6.3899203e-11 -2.0386332e-10 -1.7974855e-28 -6.3895447e-11 -1.088099e-27 7.5125092e-15)
(1.6952949e-11 -1.0494694e-10 -2.742052e-29 -1.6952261e-11 4.040885e-28 1.3755385e-15)
(1.9068452e-12 -3.2319593e-11 -1.2503671e-29 -1.902079e-12 1.7469528e-29 9.5322942e-15)
(5.2423494e-14 -2.262058e-11 1.4064769e-26 -5.4935666e-14 2.2299678e-29 -5.0243431e-15)
(-4.8031009e-14 -4.2786728e-12 2.6599236e-27 4.8982445e-14 -1.948477e-29 1.9028724e-15)
(3.0801518e-11 -6.219261e-09 3.0997291e-29 -3.0759693e-11 -1.4099006e-27 8.3651642e-14)
(-1.5729057e-11 -4.2545464e-09 2.3825729e-24 1.4949063e-11 -6.830577e-27 -1.5599881e-12)
(-5.715305e-10 -1.0086369e-08 1.8423448e-23 5.7295272e-10 -5.3553144e-25 2.8444344e-12)
(-8.8098546e-10 -5.8589805e-09 8.7952429e-24 8.8035109e-10 -6.1631928e-25 -1.2687351e-12)
(-9.6246363e-10 -3.2681564e-09 9.8368995e-25 9.6265268e-10 -9.8376967e-26 3.7808633e-13)
(-1.3564395e-10 -2.8782802e-10 7.3086458e-26 1.3572821e-10 -2.1653795e-26 1.6851618e-13)
(6.6168132e-14 2.498696e-14 -5.4524671e-29 -6.5592514e-14 -2.6750986e-30 1.1512369e-15)
(1.6513524e-10 1.2851249e-10 -1.9890692e-27 -1.6501576e-10 -3.9070947e-27 2.3894734e-13)
(2.2505172e-10 1.2904681e-10 -7.0435496e-26 -2.2494088e-10 1.9801306e-26 2.2167881e-13)
(1.9849184e-10 8.5278425e-11 -4.5470928e-26 -1.9840903e-10 3.5032578e-26 1.6561233e-13)
(1.4567936e-10 4.8196318e-11 3.7402347e-27 -1.4562517e-10 4.9864981e-27 1.0837969e-13)
(1.0592243e-10 2.7679295e-11 2.6207621e-27 -1.0588721e-10 9.9182092e-28 7.0440891e-14)
(8.1662832e-11 1.7332069e-11 -1.841202e-27 -8.1638018e-11 -1.3387091e-27 4.9627731e-14)
(6.6709074e-11 1.1982777e-11 7.4941428e-26 -6.6690242e-11 -5.8177471e-26 3.7662941e-14)
(5.6269618e-11 9.0440626e-12 6.4059112e-26 -5.6254762e-11 -4.7388778e-26 2.9712295e-14)
(4.8239046e-11 7.4537056e-12 9.9014759e-28 -4.8227281e-11 1.5072368e-27 2.3529758e-14)
(4.1640389e-11 6.6760846e-12 -1.609943e-26 -4.1631404e-11 1.0978571e-26 1.7969187e-14)
(3.731609e-11 6.5393059e-12 -1.6996546e-26 -3.7309052e-11 6.8158629e-27 1.4076237e-14)
(3.5061461e-11 6.6908805e-12 -7.4537131e-27 -3.5055672e-11 2.8130929e-27 1.1578527e-14)
(3.3770055e-11 6.9284592e-12 -6.8461667e-27 -3.3765252e-11 3.7770275e-27 9.6062804e-15)
(3.3548299e-11 7.3162502e-12 -2.3041153e-27 -3.354423e-11 -3.4609774e-27 8.1379725e-15)
(3.4566304e-11 7.9314583e-12 2.1189236e-27 -3.4562765e-11 2.6665205e-27 7.0774437e-15)
(3.69761e-11 8.8423096e-12 5.242907e-27 -3.6972903e-11 6.2024094e-27 6.3938902e-15)
(4.1266489e-11 1.0202366e-11 -1.9869088e-27 -4.1263364e-11 -2.8992777e-27 6.2496328e-15)
(4.7776919e-11 1.2110446e-11 -1.7270808e-27 -4.7773579e-11 -1.7183089e-27 6.679163e-15)
(5.7108643e-11 1.4744274e-11 2.0560448e-27 -5.7104479e-11 2.9222619e-27 8.3295066e-15)
(6.9002065e-11 1.8046634e-11 2.3950621e-27 -6.8996497e-11 4.1184676e-27 1.1135314e-14)
(8.2446814e-11 2.2042936e-11 9.3704228e-28 -8.2439568e-11 8.1555994e-28 1.4492043e-14)
(9.7798964e-11 2.7272907e-11 -1.6371264e-27 -9.7789656e-11 -1.2483639e-27 1.8614273e-14)
(1.1538609e-10 3.4233665e-11 -6.3174693e-27 -1.153743e-10 -9.4656028e-27 2.3574398e-14)
(1.3483527e-10 4.3341332e-11 -2.4132699e-27 -1.3482062e-10 -5.0614252e-27 2.9299556e-14)
(1.5553711e-10 5.5054669e-11 -4.5722211e-27 -1.5551941e-10 -4.6708593e-27 3.5400693e-14)
(1.7640373e-10 6.9770523e-11 -1.2724408e-26 -1.7638303e-10 -1.9017043e-26 4.138889e-14)
(1.9580003e-10 8.7703799e-11 1.1365168e-28 -1.9577701e-10 -1.3329237e-28 4.6047582e-14)
(2.1209356e-10 1.0902523e-10 -5.1738775e-26 -2.1206953e-10 6.0850881e-26 4.8061882e-14)
(2.2520632e-10 1.3448484e-10 -8.0455839e-26 -2.2518298e-10 3.3437092e-26 4.6686715e-14)
(2.3780454e-10 1.6618515e-10 -7.0619929e-26 -2.3778149e-10 4.9488954e-26 4.6105569e-14)
(2.4776946e-10 2.0301595e-10 -4.337908e-25 -2.4774748e-10 2.2811942e-25 4.3965198e-14)
(2.5128041e-10 2.4260524e-10 -4.1370162e-25 -2.5125964e-10 1.5372453e-25 4.1531833e-14)
(2.4608802e-10 2.8249842e-10 4.7163494e-25 -2.4607053e-10 -1.4231132e-25 3.4982538e-14)
(2.3231665e-10 3.2171077e-10 5.0070177e-25 -2.3230129e-10 -1.7205396e-25 3.0709584e-14)
(2.0693793e-10 3.5347222e-10 1.9368638e-27 -2.0692896e-10 2.8340443e-27 1.7934327e-14)
(1.7542811e-10 3.8317893e-10 5.5377205e-25 -1.754193e-10 -1.1944718e-25 1.761813e-14)
(1.3366703e-10 3.9591849e-10 5.5909927e-25 -1.3366902e-10 -9.7697678e-26 -3.9834261e-15)
(9.4574098e-11 4.2558569e-10 3.1229484e-27 -9.4566325e-11 9.9374738e-27 1.5546287e-14)
(5.0152055e-11 4.4035224e-10 -2.9205192e-25 -5.0174527e-11 1.4456988e-26 -4.494257e-14)
(1.5821892e-11 6.9506787e-10 -4.6192648e-25 -1.581287e-11 6.7271661e-27 1.8043576e-14)
(8.6428685e-12 1.1847379e-09 -8.469001e-31 -8.700147e-12 -2.9065008e-30 -1.1455706e-13)
(6.6113918e-12 1.5222331e-09 -4.9346375e-31 -6.6313181e-12 -6.9431219e-31 -3.9852678e-14)
(5.7334649e-12 1.8594964e-09 4.6118987e-31 -5.7836919e-12 3.8852303e-30 -1.0045404e-13)
(4.5091895e-12 2.1016783e-09 1.4040416e-31 -4.5433555e-12 -1.191378e-30 -6.8331918e-14)
(3.6840648e-12 2.321031e-09 -1.6194005e-24 -3.7332896e-12 1.6503146e-27 -9.844964e-14)
(2.791302e-12 2.4779188e-09 -1.7325254e-24 -2.833206e-12 1.2270244e-27 -8.3808158e-14)
(2.0807579e-12 2.6064662e-09 5.3527789e-32 -2.1294975e-12 3.4989614e-30 -9.7479262e-14)
(1.3767333e-12 2.6901686e-09 6.8346069e-33 -1.4216861e-12 -3.5893271e-30 -8.9905522e-14)
(7.8078468e-13 2.7459062e-09 -7.9792283e-33 -8.2810112e-13 -1.9792955e-30 -9.4632878e-14)
(2.238542e-13 2.7680554e-09 -1.9143378e-24 -2.6854799e-13 -7.6564111e-29 -8.938758e-14)
(-2.6313462e-13 2.7658592e-09 -1.9098138e-24 2.1853843e-13 -3.5358938e-28 -8.9192372e-14)
(-7.1389538e-13 2.7374468e-09 9.4781181e-25 6.7178396e-13 3.0205434e-28 -8.4222833e-14)
(-1.1044007e-12 2.6881637e-09 -2.8388618e-24 1.0637923e-12 -7.2945351e-28 -8.1216799e-14)
(-1.4452592e-12 2.619124e-09 -5.5325391e-24 1.4072641e-12 -1.9032071e-27 -7.5990324e-14)
(-1.7306737e-12 2.5342262e-09 -1.8034369e-24 1.6949117e-12 -5.5073898e-28 -7.1523881e-14)
(-1.9671465e-12 2.4354262e-09 7.3758331e-31 1.9341114e-12 -6.0602514e-32 -6.6070233e-14)
(-2.1541572e-12 2.3257896e-09 5.810088e-33 2.1236719e-12 1.9183129e-31 -6.0970619e-14)
(-2.2963945e-12 2.2074509e-09 1.4402296e-33 2.2686374e-12 3.9831887e-31 -5.5514233e-14)
(-2.3959244e-12 2.0829109e-09 -2.7307302e-32 2.3707639e-12 -1.3025915e-30 -5.0320917e-14)
(-2.4568907e-12 1.9541517e-09 2.8491605e-31 2.43433e-12 1.4894004e-30 -4.5121309e-14)
(-2.4824281e-12 1.8232044e-09 -6.3502638e-25 2.4623282e-12 -7.7088012e-28 -4.0199777e-14)
(-2.4766572e-12 1.6917562e-09 -4.746813e-24 2.4589273e-12 -5.0817319e-27 -3.5459889e-14)
(-2.4432376e-12 1.5613915e-09 -3.8412241e-24 2.427718e-12 -4.2535835e-27 -3.1039167e-14)
(-2.3860527e-12 1.4334317e-09 1.0630981e-32 2.3726014e-12 -3.6030527e-31 -2.6902767e-14)
(-2.308931e-12 1.3090456e-09 2.0652184e-33 2.2973779e-12 1.186117e-31 -2.3106225e-14)
(-2.2156863e-12 1.1891643e-09 -4.7817239e-33 2.2058694e-12 -1.0477264e-32 -1.9633723e-14)
(-2.1097276e-12 1.0745569e-09 5.3908409e-33 2.1014774e-12 1.1764253e-31 -1.6500341e-14)
(-1.9943264e-12 9.6580003e-10 1.3322295e-31 1.9874826e-12 -7.8854979e-32 -1.3687576e-14)
(-1.8716113e-12 8.6331871e-10 -1.2475811e-31 1.8660098e-12 -2.2694852e-32 -1.120299e-14)
(-1.7436958e-12 7.6746173e-10 2.6894423e-25 1.7391864e-12 5.225993e-28 -9.0187179e-15)
(-1.6142805e-12 6.7843492e-10 2.3763884e-25 1.6107183e-12 4.8234805e-28 -7.1243255e-15)
(-1.485442e-12 5.9621423e-10 -8.3730866e-32 1.4826937e-12 -1.2208787e-33 -5.4965501e-15)
(-1.3579678e-12 5.2076896e-10 1.4994184e-31 1.3559135e-12 5.2494405e-32 -4.1087214e-15)
(-1.2335702e-12 4.519936e-10 -6.8530501e-32 1.2320949e-12 -1.065732e-31 -2.9505003e-15)
(-1.1134025e-12 3.8968133e-10 -1.3724823e-25 1.1124056e-12 -3.3140746e-28 -1.9939526e-15)
(-9.9837844e-13 3.3359909e-10 -1.1752796e-25 9.9777223e-13 -2.9685311e-28 -1.212405e-15)
(-8.8936714e-13 2.8345208e-10 -2.0697562e-32 8.8906785e-13 7.1692613e-32 -5.9857276e-16)
(-7.8675501e-13 2.3890766e-10 -5.0786156e-25 7.8669736e-13 -1.1206002e-27 -1.1530095e-16)
(-6.9097978e-13 1.9962431e-10 -4.2491817e-25 6.911022e-13 -9.852058e-28 2.4484601e-16)
(-6.0226059e-13 1.6523406e-10 -1.1781425e-32 6.0251265e-13 -2.1997958e-32 5.041128e-16)
(-5.2072484e-13 1.3536206e-10 1.0727156e-32 5.2106402e-13 -2.7452691e-32 6.7836236e-16)
(-4.4630908e-13 1.0962747e-10 -1.5603638e-25 4.4669971e-13 -4.2542411e-28 7.812566e-16)
(-3.7889377e-13 8.7663028e-11 -1.2499459e-25 3.7930824e-13 -3.6184551e-28 8.2894412e-16)
(-3.1828624e-13 6.9099103e-11 2.2615047e-34 3.18701e-13 2.4865591e-32 8.2952559e-16)
(-2.6422934e-13 5.358605e-11 -1.9323059e-26 2.6462835e-13 -7.949961e-29 7.9800747e-16)
(-2.1645633e-13 4.0781127e-11 -1.4765045e-26 2.1682583e-13 -6.5376349e-29 7.3898951e-16)
(-1.7458454e-13 3.0361653e-11 -1.0839292e-34 1.7491679e-13 2.1954816e-32 6.6450567e-16)
(-1.383091e-13 2.2025613e-11 7.1448882e-35 1.3859841e-13 2.6725083e-33 5.7861923e-16)
(-1.0724356e-13 1.5482647e-11 -1.5022439e-35 1.0748784e-13 -6.1504836e-33 4.8856048e-16)
(-8.097575e-14 1.046845e-11 -3.9043696e-27 8.1174956e-14 -2.5193571e-29 3.9841273e-16)
(-5.9135005e-14 6.7380445e-12 -2.5443176e-27 5.9291056e-14 -1.8652399e-29 3.1210195e-16)
(-4.1327501e-14 4.0652636e-12 3.587468e-35 4.1443812e-14 -1.1030798e-33 2.3262308e-16)
(-2.7182753e-14 2.2455315e-12 -1.8873168e-35 2.72639e-14 -3.4862226e-34 1.6229385e-16)
(-1.6386133e-14 1.0923097e-12 5.0828029e-36 1.6437863e-14 -1.6866065e-34 1.0346089e-16)
(-8.6234851e-15 4.3472841e-13 -9.1597179e-36 8.6521645e-15 -2.8066048e-36 5.7358732e-17)
(-3.5437913e-15 1.1963499e-13 5.6854147e-29 3.5561812e-15 1.4559269e-30 2.4779856e-17)
(-7.8615674e-16 1.3073056e-14 -4.6364876e-30 7.8903876e-16 -1.4153787e-31 5.7640365e-18)
(-2.7413139e-18 -2.7871338e-18 -5.2239751e-33 2.751831e-18 1.1648772e-32 2.1034102e-20)
(-8.775401e-16 -1.6877398e-14 -3.0937735e-36 8.8105807e-16 4.5185587e-35 7.0359475e-18)
(-3.1309466e-15 -1.1898953e-13 2.4965497e-29 3.1440402e-15 -4.5356892e-31 2.6187167e-17)
(-6.5159512e-15 -3.738301e-13 -3.6203373e-32 6.5443327e-15 -9.9976061e-35 5.676308e-17)
(-1.0806108e-14 -8.3632694e-13 -2.2869896e-28 1.0855081e-14 2.2423104e-30 9.7945391e-17)
(-1.5791613e-14 -1.5495796e-12 -3.1823046e-35 1.5866051e-14 4.0157383e-33 1.4887605e-16)
(-2.1287557e-14 -2.5464191e-12 -1.6639295e-34 2.1391788e-14 -1.0022653e-33 2.0846277e-16)
(-2.7118505e-14 -3.8499239e-12 6.119217e-34 2.7256469e-14 -2.439228e-33 2.7592859e-16)
(-3.3129554e-14 -5.4741277e-12 -3.778954e-34 3.330457e-14 -4.8921097e-33 3.5003174e-16)
(-3.918024e-14 -7.4256498e-12 -4.7336324e-34 3.9395149e-14 -7.3333984e-33 4.2981726e-16)
(-4.5134784e-14 -9.7029204e-12 1.0003792e-33 4.5392037e-14 1.1577525e-32 5.145055e-16)
(-5.0891725e-14 -1.2298663e-11 -4.5565243e-34 5.1193105e-14 -8.1820377e-33 6.0276017e-16)
(-5.6339729e-14 -1.5200128e-11 -7.0997546e-34 5.6686686e-14 -3.5328843e-34 6.9391324e-16)
(-6.1377401e-14 -1.8387369e-11 -2.1684104e-33 6.177097e-14 7.2796677e-32 7.8713785e-16)
(-6.594445e-14 -2.1837791e-11 -1.8461065e-34 6.6385011e-14 1.0398893e-32 8.8112196e-16)
(-6.9952244e-14 -2.5524359e-11 4.6600797e-33 7.0440038e-14 -1.5450082e-31 9.7558655e-16)
(-7.3327135e-14 -2.9414349e-11 -9.4288112e-27 7.3861919e-14 1.8262875e-29 1.069568e-15)
(-7.6039378e-14 -3.3473839e-11 -1.0771841e-26 7.6620593e-14 1.8925719e-29 1.1624307e-15)
(-7.8018835e-14 -3.7666379e-11 1.2132997e-26 7.8645367e-14 -1.9273806e-29 1.2530645e-15)
(-7.921109e-14 -4.1949659e-11 1.3558077e-26 7.9882137e-14 -1.9652905e-29 1.3420943e-15)
(-7.9610441e-14 -4.6282779e-11 7.3236057e-34 8.0323982e-14 -5.0700595e-32 1.4270825e-15)
(-7.9160663e-14 -5.0621868e-11 -1.6390371e-26 7.9915476e-14 1.9369283e-29 1.5096271e-15)
(-7.7818981e-14 -5.491962e-11 -1.7832673e-26 7.8612562e-14 1.9234314e-29 1.587162e-15)
(-7.5602939e-14 -5.9128391e-11 3.8397451e-26 7.6433945e-14 -3.711544e-29 1.6620113e-15)
(-7.2456352e-14 -6.3202574e-11 4.1151604e-26 7.3321027e-14 -3.5138319e-29 1.7293487e-15)