/*--------------------------------*- C++ -*----------------------------------*\
| =========                 |                                                 |
| \\      /  F ield         | OpenFOAM: The Open Source CFD Toolbox           |
|  \\    /   O peration     | Version:  2.4.0                                 |
|   \\  /    A nd           | Web:      www.OpenFOAM.org                      |
|    \\/     M anipulation  |                                                 |
\*---------------------------------------------------------------------------*/
FoamFile
{
    version     2.0;
    format      ascii;
    class       volSymmTensorField;
    location    "8247";
    object      T10;
}
// * * * * * * * * * * * * * * * * * * * * * * * * * * * * * * * * * * * * * //

dimensions      [0 0 0 0 0 0 0];

internalField   nonuniform List<symmTensor> 
32000
(
(6.027343e-22 5.0262175e-24 1.2262031e-40 -6.027343e-22 -2.5503458e-44 2.4944061e-59)
(1.1338511e-21 -1.6533983e-24 -2.2217149e-40 -1.1338511e-21 -7.0485402e-37 -4.3816914e-52)
(-4.0809846e-21 2.2546181e-22 6.6587616e-38 4.0809846e-21 2.5374821e-36 1.576437e-51)
(8.8558839e-22 -1.375158e-22 -1.9064768e-38 -8.8558839e-22 -2.768735e-37 -8.5931382e-53)
(-3.011487e-22 9.1735024e-23 1.3118586e-38 3.011487e-22 9.6166649e-38 2.9914117e-53)
(2.103533e-23 -1.0646706e-23 -2.4259723e-39 -2.103533e-23 -6.7816827e-39 -2.148044e-54)
(7.9699245e-26 -7.1312932e-26 -7.0482627e-43 -7.9699245e-26 -3.3108634e-41 -7.925991e-57)
(3.9315169e-23 -4.8942281e-23 -9.6318754e-40 -3.9315169e-23 4.9579264e-40 1.866358e-56)
(2.3679336e-23 -4.1029969e-23 -5.329879e-39 -2.3679336e-23 -1.120909e-38 -3.2105421e-54)
(1.2541176e-23 -2.9139245e-23 -4.8505106e-39 -1.2541176e-23 -6.5654822e-39 -2.0881503e-54)
(5.022983e-24 -1.5197397e-23 2.1407435e-40 -5.022983e-24 -1.6098282e-40 4.4790513e-57)
(2.0467307e-24 -7.8446058e-24 8.6628497e-41 -2.0467307e-24 -7.0387928e-41 1.5349227e-57)
(9.6972032e-25 -4.5733667e-24 2.3653705e-40 -9.6972032e-25 -2.2727717e-40 2.2688848e-56)
(5.4149612e-25 -3.0158745e-24 -7.9175171e-41 -5.4149612e-25 6.9213173e-41 3.6058426e-57)
(3.3818954e-25 -2.1056654e-24 -4.67024e-41 -3.3818954e-25 4.0404919e-41 1.7880321e-57)
(2.3092438e-25 -1.4971421e-24 6.0231506e-41 -2.3092438e-25 -3.9050643e-41 3.2806907e-57)
(1.6530819e-25 -1.0336197e-24 -2.3174596e-40 -1.6530819e-25 -4.5708364e-40 -2.2326993e-55)
(1.2901336e-25 -7.3751197e-25 -2.0970366e-40 -1.2901336e-25 -2.9108681e-40 -1.6999965e-55)
(1.1031257e-25 -5.7857369e-25 -4.4337781e-41 -1.1031257e-25 -1.4158134e-40 -2.6687321e-56)
(9.5485728e-26 -4.655899e-25 -3.9233612e-41 -9.5485728e-26 -1.1164921e-40 -2.2675688e-56)
(8.4590824e-26 -3.8774796e-25 4.5149956e-41 -8.4590824e-26 -3.6725271e-41 8.5345891e-57)
(7.8625532e-26 -3.4221713e-25 -2.6699931e-41 -7.8625532e-26 2.0629906e-41 3.2409113e-57)
(7.67838e-26 -3.2031973e-25 6.9826458e-42 -7.67838e-26 -2.6128937e-42 1.3739998e-58)
(8.2695878e-26 -3.3327887e-25 1.6550704e-41 -8.2695878e-26 -9.5429508e-42 1.0210834e-57)
(1.0015942e-25 -3.9324166e-25 2.5714193e-41 -1.0015942e-25 -1.7432483e-41 2.3582827e-57)
(1.407408e-25 -5.4201317e-25 -2.3643646e-41 -1.407408e-25 1.8404374e-41 1.6031175e-57)
(2.1877409e-25 -8.3152161e-25 -7.866044e-41 -2.1877409e-25 5.5509083e-41 1.0741407e-56)
(3.3049242e-25 -1.229094e-24 -1.1701615e-40 -3.3049242e-25 8.8187205e-41 1.6866484e-56)
(4.9455074e-25 -1.7638185e-24 3.6560375e-41 -4.9455074e-25 -4.1105994e-41 1.5278516e-57)
(7.4661201e-25 -2.5037948e-24 -4.4893047e-41 -7.4661201e-25 5.5143786e-41 1.7038273e-57)
(1.1138868e-24 -3.4497001e-24 -6.5592315e-41 -1.1138868e-24 7.4577902e-41 2.4615075e-57)
(1.6292821e-24 -4.5852273e-24 1.1837653e-40 -1.6292821e-24 -1.1499172e-40 5.32619e-57)
(2.3023372e-24 -5.8030538e-24 1.4874514e-40 -2.3023372e-24 -1.0993083e-40 5.4621951e-57)
(3.0927817e-24 -6.8887696e-24 -8.7238712e-42 -3.0927817e-24 -1.1852499e-41 -2.8475635e-59)
(3.8622504e-24 -7.5013746e-24 -1.8381884e-39 -3.8622504e-24 -2.1308101e-39 -8.8848203e-55)
(4.4824467e-24 -7.4966811e-24 -1.7849041e-39 -4.4824467e-24 -2.327798e-39 -9.4772147e-55)
(5.1002259e-24 -7.2895744e-24 -1.0266444e-39 -5.1002259e-24 -2.5815606e-39 -8.4970558e-55)
(5.8189824e-24 -7.0947007e-24 -1.2531585e-39 -5.8189824e-24 -2.6103517e-39 -9.136867e-55)
(6.11756e-24 -6.3321537e-24 3.1619704e-40 -6.11756e-24 -1.6235098e-40 1.4196366e-56)
(5.9887789e-24 -5.2151012e-24 -1.527437e-40 -5.9887789e-24 7.7233906e-41 3.6002793e-57)
(5.1145711e-24 -3.6936816e-24 4.1333283e-41 -5.1145711e-24 -1.5958299e-41 3.0923466e-58)
(3.938546e-24 -2.3067914e-24 3.9583706e-41 -3.938546e-24 4.1599403e-42 2.5647875e-58)
(1.6441398e-24 -7.5351653e-25 -1.2015904e-41 -1.6441398e-24 3.8742028e-42 8.6476134e-59)
(1.0344742e-24 -3.4953974e-25 -2.1579073e-42 -1.0344742e-24 -1.5202308e-42 1.1152932e-61)
(-3.0019301e-24 6.6727352e-25 2.6169494e-41 3.0019301e-24 -7.5735456e-42 -2.2715459e-58)
(1.3318663e-24 -1.4773439e-25 -5.2540592e-41 -1.3318663e-24 -9.5008388e-40 -6.7566892e-55)
(-2.7030304e-23 4.4784823e-25 1.4919294e-40 2.7030304e-23 1.9235057e-38 1.3686812e-53)
(-2.6245223e-23 6.8976615e-26 1.6637991e-44 2.6245223e-23 8.283697e-44 2.5118246e-64)
(-5.6908256e-23 9.2568892e-26 -1.8870593e-43 5.6908256e-23 -4.2267402e-45 -6.2538158e-64)
(-5.1829325e-23 5.9935724e-26 1.756333e-43 5.1829325e-23 5.1072349e-45 -5.9462201e-64)
(-7.4626582e-23 6.3253221e-26 -9.0857377e-44 7.4626582e-23 -8.6213925e-45 -1.0960439e-64)
(-7.2537618e-23 4.6703928e-26 -8.8271506e-44 7.2537618e-23 9.1479965e-45 -1.0627878e-64)
(-8.6077256e-23 4.2335885e-26 1.7568404e-43 8.6077256e-23 -9.7268985e-45 -3.5749216e-64)
(-8.4876518e-23 3.1797642e-26 -5.5707066e-44 8.4876518e-23 6.7662286e-45 -3.6026188e-65)
(-9.0815173e-23 2.5331954e-26 -4.8816936e-45 9.0815173e-23 6.1753764e-46 -2.5823063e-67)
(-8.8617289e-23 1.762406e-26 -3.4799181e-44 8.8617289e-23 2.978056e-46 -1.3664358e-65)
(-8.9140606e-23 1.1588599e-26 1.5398689e-42 8.9140606e-23 6.3324241e-38 4.4984656e-53)
(-8.5273976e-23 5.8398496e-27 -3.7723876e-43 8.5273976e-23 6.0625286e-38 4.3101371e-53)
(-8.2083518e-23 9.6639058e-28 1.0305945e-42 8.2083518e-23 -2.9143541e-38 1.0347339e-53)
(-7.6590274e-23 -3.1098297e-27 1.5105137e-42 7.6590274e-23 -2.7213648e-38 9.6694083e-54)
(-7.1238171e-23 -6.3650867e-27 4.0311144e-42 7.1238171e-23 -5.0608337e-38 3.5952688e-53)
(-6.4855976e-23 -8.7685069e-27 4.7543721e-42 6.4855976e-23 -4.6107411e-38 3.277868e-53)
(-5.8592462e-23 -1.0469262e-26 -7.8855212e-45 5.8592462e-23 -1.3672361e-46 -1.0609408e-66)
(-5.2053391e-23 -1.1464256e-26 9.2917958e-45 5.2053391e-23 -6.9786696e-47 -1.6585338e-66)
(-4.5792351e-23 -1.1915681e-26 -1.4060639e-44 4.5792351e-23 -2.1750998e-45 -4.2143807e-66)
(-3.9700859e-23 -1.1866827e-26 1.0632894e-44 3.9700859e-23 3.6248148e-45 -2.5173812e-66)
(-3.4042994e-23 -1.145671e-26 1.0967808e-45 3.4042994e-23 -3.3994132e-45 3.0419152e-67)
(-2.8793144e-23 -1.0748736e-26 -2.1682166e-42 2.8793144e-23 1.0223738e-38 3.6301981e-54)
(-2.4061042e-23 -9.8505365e-27 -3.9281449e-42 2.4061042e-23 1.7099389e-38 1.2151972e-53)
(-1.9830763e-23 -8.8240856e-27 -1.7294465e-42 1.9830763e-23 7.0515279e-39 2.5074195e-54)
(-1.6129669e-23 -7.7447013e-27 6.0864737e-45 1.6129669e-23 8.1572421e-46 -2.2557509e-66)
(-1.2927177e-23 -6.6592011e-27 -4.5093527e-45 1.2927177e-23 -1.4490538e-49 -1.5729851e-66)
(-1.0202264e-23 -5.6124629e-27 3.3356065e-45 1.0202264e-23 4.8912694e-46 -1.0672942e-66)
(-7.9145721e-24 -4.6324223e-27 -1.5242456e-45 7.9145721e-24 -3.8776954e-46 -2.7463903e-67)
(-6.024991e-24 -3.741058e-27 8.8605876e-46 6.024991e-24 1.0037571e-48 -1.3030724e-67)
(-4.485529e-24 -2.9467806e-27 -3.2151703e-47 4.485529e-24 -5.6058005e-48 -2.2350616e-70)
(-3.2607078e-24 -2.2604694e-27 4.1484719e-43 3.2607078e-24 -1.1578916e-39 4.1117232e-55)
(-2.2962809e-24 -1.6775746e-27 3.0637071e-43 2.2962809e-24 -8.1576681e-40 2.8980575e-55)
(-1.5499901e-24 -1.192486e-27 -1.8628294e-47 1.5499901e-24 7.8175727e-47 3.720455e-69)
(-9.8992958e-25 -8.0121371e-28 -6.3647575e-47 9.8992958e-25 -4.790391e-47 -1.7790796e-69)
(-5.7749974e-25 -4.9148601e-28 3.5127642e-47 5.7749974e-25 3.0399089e-47 -5.3967814e-70)
(-2.8383298e-25 -2.5395994e-28 -4.5332236e-44 2.8383298e-25 1.0079497e-40 3.5794375e-56)
(-8.4491065e-26 -7.9481951e-29 -1.4177342e-44 8.4491065e-26 3.0014559e-41 1.0662353e-56)
(4.5475505e-26 4.5002671e-29 1.3472065e-48 -4.5475505e-26 1.0322956e-48 1.6538202e-71)
(1.2157774e-25 1.2664972e-28 9.5909927e-48 -1.2157774e-25 -3.4559953e-48 6.578021e-70)
(1.6011992e-25 1.7577221e-28 -4.5124265e-47 -1.6011992e-25 1.1813463e-49 1.2716539e-68)
(1.7208311e-25 1.9934594e-28 -1.3366145e-47 -1.7208311e-25 -3.3305366e-48 9.743214e-70)
(1.6685516e-25 2.04353e-28 3.1008577e-47 -1.6685516e-25 3.8320988e-48 5.6763993e-69)
(1.5137071e-25 1.9644449e-28 3.015684e-47 -1.5137071e-25 -2.1937012e-49 6.0075569e-69)
(1.3041211e-25 1.7981577e-28 -8.9335252e-47 -1.3041211e-25 1.0999825e-49 6.1196257e-68)
(1.0782322e-25 1.5847415e-28 7.3637609e-47 -1.0782322e-25 -1.5631688e-48 5.026472e-68)
(8.5660387e-26 1.3471127e-28 2.3197473e-44 -8.5660387e-26 -3.0448626e-41 -1.0823185e-56)
(6.5713401e-26 1.1110677e-28 1.9140928e-44 -6.5713401e-26 -2.3361846e-41 -8.3053899e-57)
(4.8485173e-26 8.861781e-29 -2.6401177e-47 -4.8485173e-26 4.6068191e-49 1.4370644e-68)
(3.4412737e-26 6.8459469e-29 2.2582658e-48 -3.4412737e-26 3.0408765e-49 1.4558585e-70)
(2.3373051e-26 5.1043748e-29 1.3962451e-48 -2.3373051e-26 -2.4377019e-50 8.3375859e-71)
(1.5090438e-26 3.6551834e-29 6.2177622e-45 -1.5090438e-26 -5.3642735e-42 -1.9068621e-57)
(9.1741956e-27 2.4971153e-29 4.2363686e-45 -9.1741956e-27 -3.2613896e-42 -1.1594085e-57)
(5.1749705e-27 1.60945e-29 1.8898034e-48 -5.1749705e-27 -2.6299691e-51 6.9010722e-70)
(2.6479446e-27 9.6113504e-30 -1.1326795e-49 -2.6479446e-27 -1.0060421e-50 4.8099649e-72)
(1.1868414e-27 5.1756661e-30 1.340421e-49 -1.1868414e-27 -1.4269861e-51 1.5135331e-71)
(4.4034025e-28 2.4112383e-30 3.244531e-50 -4.4034025e-28 5.1541605e-51 2.3344071e-72)
(1.2054162e-28 8.9216171e-31 -1.4951157e-46 -1.2054162e-28 4.2853414e-44 -1.5234465e-59)
(1.844864e-29 2.13128e-31 -3.5613343e-47 -1.844864e-29 6.5585196e-45 -2.3314763e-60)
(5.4669191e-31 1.4852105e-32 1.0977492e-51 -5.4669191e-31 1.9833078e-53 2.2040817e-72)
(1.0954856e-32 -7.715158e-34 -2.9399749e-52 -1.0954856e-32 2.1568131e-53 7.8899973e-72)
(4.7632846e-30 -7.1629247e-32 -1.1834767e-47 -4.7632846e-30 -1.6920784e-45 -6.0104411e-61)
(4.5802023e-29 -3.8121021e-31 6.2295622e-50 -4.5802023e-29 1.5788476e-47 -5.4423623e-66)
(1.864258e-28 -1.0636114e-30 1.764451e-46 -1.864258e-28 6.6267725e-44 -2.3555595e-59)
(5.1177144e-28 -2.2058274e-30 -2.9228219e-48 -5.1177144e-28 -4.0360202e-50 1.6687299e-68)
(1.1205196e-27 -3.8579069e-30 3.8157026e-48 -1.1205196e-27 1.0758669e-50 1.2993094e-68)
(2.1145212e-27 -6.0273491e-30 -8.6486774e-48 -2.1145212e-27 1.0104168e-49 3.53715e-68)
(3.5943862e-27 -8.6976624e-30 -3.2007375e-48 -3.5943862e-27 2.0715231e-49 2.8391378e-69)
(5.6522954e-27 -1.1825105e-29 1.1410607e-47 -5.6522954e-27 -2.7737882e-49 2.3023864e-68)
(8.3628367e-27 -1.533538e-29 2.2724797e-47 -8.3628367e-27 -8.4790865e-50 6.1751122e-68)
(1.1792623e-26 -1.9162963e-29 -1.8685258e-47 -1.1792623e-26 -2.6518256e-49 2.9599141e-68)
(1.5981128e-26 -2.3206826e-29 -6.4662689e-48 -1.5981128e-26 -3.7289205e-52 2.6163697e-69)
(2.094109e-26 -2.7354563e-29 4.9774119e-47 -2.094109e-26 1.3097884e-48 1.1821605e-67)
(2.6688531e-26 -3.1536165e-29 2.4538253e-47 -2.6688531e-26 -4.8028309e-49 2.255359e-68)
(3.3186962e-26 -3.5620707e-29 -2.0743895e-48 -3.3186962e-26 -1.3842027e-48 7.1742271e-71)
(4.0392785e-26 -3.9505422e-29 6.1439858e-45 -4.0392785e-26 1.4349383e-41 -5.0975622e-57)
(4.8248862e-26 -4.3113044e-29 6.9706786e-45 -4.8248862e-26 1.7133847e-41 -6.0844677e-57)
(5.6679378e-26 -4.6344191e-29 -7.5573784e-45 -5.6679378e-26 -2.013551e-41 -7.1531954e-57)
(6.5543875e-26 -4.9074353e-29 -7.5952604e-45 -6.5543875e-26 -2.3275122e-41 -8.2651693e-57)
(7.4807497e-26 -5.1309509e-29 -6.6081593e-47 -7.4807497e-26 -3.3354181e-48 5.8220736e-68)
(8.4253182e-26 -5.2894548e-29 8.1620032e-45 -8.4253182e-26 2.9932006e-41 -1.0633721e-56)
(9.3814173e-26 -5.3814929e-29 8.274553e-45 -9.3814173e-26 3.3313234e-41 -1.1829465e-56)
(1.0327125e-25 -5.3999934e-29 -1.6349798e-44 -1.0327125e-25 -7.3409538e-41 -5.2182574e-56)
(1.1260929e-25 -5.3462146e-29 -1.5842729e-44 -1.1260929e-25 -8.0007441e-41 -5.6844243e-56)
(1.2140786e-25 -5.2035255e-29 2.7415432e-47 -1.2140786e-25 3.7670971e-48 6.0731339e-69)
(1.2993061e-25 -4.9915304e-29 7.3766304e-45 -1.2993061e-25 4.6201065e-41 -1.6428294e-56)
(1.3741422e-25 -4.6821589e-29 6.4598016e-45 -1.3741422e-25 4.8835069e-41 -1.7355292e-56)
(1.4448663e-25 -4.3037773e-29 2.9394601e-46 -1.4448663e-25 2.0289506e-48 5.9797767e-67)
(1.4992227e-25 -3.8258732e-29 -1.0469845e-46 -1.4992227e-25 4.9834878e-48 7.2952446e-68)
(1.5511679e-25 -3.289526e-29 -6.4265555e-43 -1.5511679e-25 -1.8176533e-41 -2.1272892e-57)
(1.5760027e-25 -2.6483296e-29 -1.0458498e-39 -1.5760027e-25 3.7696083e-41 6.9314223e-54)
(1.6068174e-25 -1.9679575e-29 -1.071574e-39 -1.6068174e-25 7.5829359e-41 7.1105818e-54)
(1.592234e-25 -1.1956578e-29 1.4160142e-42 -1.592234e-25 3.7549472e-41 -8.8427059e-57)
(1.6051494e-25 -4.0568283e-30 1.089275e-39 -1.6051494e-25 1.9262458e-41 7.3896411e-54)
(1.5387897e-25 4.401247e-30 1.0579899e-39 -1.5387897e-25 -1.8329671e-41 7.2719846e-54)
(1.540064e-25 1.3714303e-29 -7.4859977e-43 -1.540064e-25 -1.8710566e-41 -2.2695315e-57)
(1.3986587e-25 2.2004349e-29 -4.6800064e-46 -1.3986587e-25 8.36914e-48 1.565452e-66)
(1.4060485e-25 3.3155506e-29 -1.4357884e-46 -1.4060485e-25 -2.8767703e-49 1.4661526e-67)
(1.1669005e-25 3.7965554e-29 2.9254907e-46 -1.1669005e-25 -1.9468973e-47 7.3015824e-67)
(1.2166651e-25 5.252973e-29 -1.483793e-46 -1.2166651e-25 -2.2420021e-49 1.8095687e-67)
(8.5150085e-26 4.7602785e-29 3.3480174e-46 -8.5150085e-26 6.7605385e-48 1.3159e-66)
(9.8482922e-26 7.0543014e-29 -6.0010964e-46 -9.8482922e-26 -2.1914756e-49 3.6567917e-66)
(4.8475491e-26 4.4461655e-29 2.5184054e-46 -4.8475491e-26 3.6581199e-49 1.3083651e-66)
(7.2359337e-26 8.5418565e-29 -6.4476437e-46 -7.2359337e-26 -7.6858039e-48 5.7445682e-66)
(1.4114502e-26 2.2013525e-29 4.3369798e-47 -1.4114502e-26 4.1807534e-48 1.3206429e-67)
(4.3836102e-26 9.1794653e-29 8.1830573e-47 -4.3836102e-26 -8.9072393e-48 1.5087615e-67)
(-5.099107e-27 -1.5524119e-29 4.2979476e-48 5.099107e-27 1.7302823e-49 -3.6176475e-69)
(1.5464724e-26 7.2555896e-29 2.5040258e-46 -1.5464724e-26 -2.6150791e-46 -4.0732992e-67)
(-2.6044457e-27 -5.9465676e-29 4.0113108e-45 2.6044457e-27 4.9696014e-45 2.9534135e-63)
(1.2194127e-28 1.3989093e-29 -2.4836354e-44 -1.2194127e-28 -1.6407436e-45 5.0467167e-60)
(-7.7230237e-28 -1.710088e-28 2.7052344e-43 7.7230237e-28 2.6380472e-44 -9.3372505e-59)
(-1.0827096e-27 -3.6313263e-28 -2.0444639e-43 1.0827096e-27 -3.278842e-44 -3.7542365e-59)
(-4.9628277e-27 -2.2617682e-27 9.9705389e-43 4.9628277e-27 2.0065357e-43 -1.8956993e-58)
(-1.0563516e-26 -6.1594436e-27 8.2950981e-43 1.0563516e-26 1.9316114e-43 -5.9175547e-59)
(-2.6429393e-26 -1.900136e-26 7.2842304e-42 2.6429393e-26 2.5122403e-42 -1.8224266e-57)
(-4.746927e-26 -4.1194414e-26 -4.6157125e-42 4.746927e-26 -1.6778499e-42 -3.8370314e-58)
(-8.414409e-26 -8.6820717e-26 -5.3598281e-42 8.414409e-26 -2.2158165e-42 -2.7817438e-58)
(-1.2351299e-25 -1.5013472e-25 2.8007754e-41 1.2351299e-25 1.3130885e-41 -4.921719e-57)
(-1.6469569e-25 -2.3453007e-25 -1.5403692e-42 1.6469569e-25 -9.1333906e-43 -1.112035e-59)
(-1.7910375e-25 -2.9806595e-25 5.7718293e-41 1.7910375e-25 3.5587422e-41 -1.3184755e-56)
(-1.1164073e-25 -2.1586855e-25 -2.3745336e-41 1.1164073e-25 -1.4822966e-41 -3.2233292e-57)
(1.1866443e-25 2.6301398e-25 -9.5566315e-42 -1.1866443e-25 -6.42355e-42 4.5921019e-58)
(6.1826412e-25 1.5495012e-24 -7.9944657e-42 -6.1826412e-25 -7.2423371e-42 6.7013859e-59)
(1.5802928e-24 4.4187512e-24 -3.6767957e-41 -1.5802928e-24 -1.7477808e-41 3.329665e-58)
(3.1982732e-24 9.8332142e-24 -2.7142259e-40 -3.1982732e-24 -1.9682748e-40 1.0871208e-56)
(5.89235e-24 1.9604213e-23 4.4952604e-40 -5.89235e-24 3.2399495e-40 1.4992738e-56)
(9.8883701e-24 3.497144e-23 -8.583549e-40 -9.8883701e-24 -2.9893363e-40 1.8434973e-56)
(1.6056562e-23 5.9188635e-23 -9.8198042e-39 -1.6056562e-23 1.1276758e-38 -3.6165143e-54)
(2.3702771e-23 8.9283052e-23 -1.5307041e-38 -2.3702771e-23 1.6506049e-38 -5.3930481e-54)
(3.2345523e-23 1.234512e-22 -1.1143768e-39 -3.2345523e-23 -7.7795632e-40 1.4407115e-56)
(3.989799e-23 1.5493117e-22 1.460907e-39 -3.989799e-23 1.0148128e-39 1.966942e-56)
(4.9216889e-23 1.9700383e-22 -7.2324985e-39 -4.9216889e-23 -5.6974413e-39 4.1744998e-55)
(6.0806735e-23 2.5214666e-22 -3.8431527e-38 -6.0806735e-23 4.9761905e-38 -1.5238642e-53)
(7.3373191e-23 3.1768572e-22 -5.8379974e-38 -7.3373191e-23 5.4239069e-38 -1.8603245e-53)
(8.9433841e-23 4.0803313e-22 -1.6494248e-40 -8.9433841e-23 -1.2126665e-41 2.3223668e-59)
(1.0853043e-22 5.270478e-22 2.7713988e-39 -1.0853043e-22 2.3250378e-39 2.430968e-56)
(1.3651703e-22 7.1315761e-22 -5.4349452e-39 -1.3651703e-22 -4.3987779e-39 6.7314194e-56)
(1.7276053e-22 9.8357443e-22 2.1655476e-39 -1.7276053e-22 1.7473899e-39 7.7476675e-57)
(2.5052608e-22 1.5588055e-21 -9.8131837e-39 -2.5052608e-22 4.5915801e-39 -4.8795622e-56)
(4.2379267e-22 2.731642e-21 -7.0638818e-39 -4.2379267e-22 -6.1057518e-39 3.1535908e-56)
(7.7490747e-22 4.7954931e-21 2.4959619e-39 -7.7490747e-22 2.2533384e-39 2.3237888e-57)
(1.563664e-21 8.6627958e-21 -3.627098e-38 -1.563664e-21 4.2347462e-38 -3.5306692e-55)
(3.3859975e-21 1.5900564e-20 5.6336931e-38 -3.3859975e-21 4.5375441e-38 3.2187301e-55)
(8.1700872e-21 3.1226771e-20 -3.5935121e-37 -8.1700872e-21 -2.0963507e-38 1.4607686e-54)
(2.0457518e-20 6.1796126e-20 5.7989929e-37 -2.0457518e-20 4.1220691e-37 7.7754747e-54)
(5.7417289e-20 1.3316305e-19 2.3929938e-37 -5.7417289e-20 1.2702294e-36 -3.9944601e-55)
(1.4369196e-19 2.4817805e-19 1.2340224e-36 -1.4369196e-19 7.1330156e-37 7.0843253e-54)
(3.4104954e-19 4.2083096e-19 -6.390339e-35 -3.4104954e-19 1.3704785e-34 -4.2206759e-50)
(3.557112e-19 2.9373885e-19 -3.7299945e-35 -3.557112e-19 1.3105018e-34 -3.9874585e-50)
(1.5074717e-19 7.9326979e-20 2.4899865e-36 -1.5074717e-19 5.7015593e-38 3.2968789e-53)
(-7.68296e-21 -2.4085315e-21 -4.0952848e-38 7.68296e-21 6.4141201e-39 -1.7436597e-55)
(-9.1397267e-22 -1.4765677e-22 3.5122175e-39 9.1397267e-22 3.2551182e-40 -1.3434365e-56)
(-2.8992152e-21 -1.7212308e-22 1.562567e-39 2.8992152e-21 1.2661572e-39 -3.6893049e-58)
(1.2055175e-21 2.4591809e-24 -1.0634901e-39 -1.2055175e-21 7.4940801e-37 -4.6586812e-52)
(-1.5045507e-22 1.6053075e-24 -6.5398011e-40 1.5045507e-22 -9.3537827e-38 5.8151625e-53)
(-8.4870189e-19 -4.2175515e-21 -1.9241867e-37 8.4870189e-19 3.2806613e-39 -4.3604233e-56)
(1.2284732e-17 -5.1042013e-20 2.1606832e-35 -1.2284732e-17 6.8745936e-33 -3.847051e-48)
(-3.9800755e-17 2.2412179e-18 -2.0957182e-33 3.9800755e-17 -7.2620525e-32 1.3240399e-46)
(1.231464e-17 -1.8550602e-18 1.2952847e-33 -1.231464e-17 1.8445754e-32 -2.7454666e-47)
(-2.4619418e-18 7.2466229e-19 -7.3428335e-35 2.4619418e-18 -7.3677283e-34 2.1279961e-49)
(-2.1305837e-19 1.0023232e-19 -1.601062e-35 2.1305837e-19 -5.4137586e-35 1.3412438e-50)
(-2.0327442e-24 5.8600742e-24 -1.5887617e-39 2.0327442e-24 -7.4897332e-39 6.4555378e-54)
(-1.5475984e-19 1.9949351e-19 4.7872181e-36 1.5475984e-19 -2.2544111e-36 -1.1084483e-52)
(-1.3417202e-19 2.3462714e-19 -2.0733895e-35 1.3417202e-19 -7.3473773e-35 1.8911106e-50)
(-7.0387926e-20 1.6431879e-19 -2.9140491e-35 7.0387926e-20 -3.7805345e-35 1.2607658e-50)
(-2.916637e-20 8.8456357e-20 -3.1045273e-36 2.916637e-20 2.1640361e-36 -1.5366494e-52)
(-1.2178889e-20 4.6782486e-20 -4.9180299e-37 1.2178889e-20 1.0874202e-36 -1.6509979e-53)
(-5.8784911e-21 2.7815276e-20 4.8805492e-37 5.8784911e-21 -5.8744025e-37 -1.8955992e-53)
(-3.3050161e-21 1.8485187e-20 1.6169126e-35 3.3050161e-21 2.0806665e-35 3.687913e-50)
(-2.0845908e-21 1.3033055e-20 1.0967653e-35 2.0845908e-21 1.4816281e-35 2.5501975e-50)
(-1.4330075e-21 9.3176754e-21 -3.1096334e-37 1.4330075e-21 1.6819491e-37 -1.2070141e-53)
(-1.029912e-21 6.4494961e-21 -1.6950195e-36 1.029912e-21 -2.485768e-36 1.3539199e-51)
(-8.1969317e-22 4.692465e-21 -8.532669e-37 8.1969317e-22 -2.131807e-36 8.9019741e-52)
(-7.0414955e-22 3.6993478e-21 -2.9865773e-37 7.0414955e-22 -7.8836698e-37 1.4927536e-52)
(-6.123171e-22 2.9906375e-21 -3.3691214e-37 6.123171e-22 -6.0902818e-37 1.4861344e-52)
(-5.4870241e-22 2.5201992e-21 2.6442099e-37 5.4870241e-22 -1.6759666e-37 -3.7027221e-53)
(-5.1194093e-22 2.2340578e-21 -1.719794e-37 5.1194093e-22 1.3739479e-37 -2.1140856e-53)
(-5.0391548e-22 2.1094973e-21 -3.5696499e-37 5.0391548e-22 2.9514734e-37 -9.8814742e-53)
(-5.4762958e-22 2.2170647e-21 1.5791057e-37 5.4762958e-22 -1.040061e-37 -1.5446233e-53)
(-6.6134511e-22 2.61121e-21 9.3659326e-38 6.6134511e-22 -9.4711519e-38 -6.3666361e-54)
(-9.4576989e-22 3.6663032e-21 -1.7466829e-37 9.4576989e-22 1.4868314e-37 -1.3837372e-53)
(-1.4524655e-21 5.558657e-21 -3.1281074e-37 1.4524655e-21 2.1748482e-37 -2.5137659e-53)
(-2.1747738e-21 8.1422239e-21 -1.1018899e-37 2.1747738e-21 5.3940847e-38 -1.6454268e-54)
(-3.2617573e-21 1.1708351e-20 1.4027004e-37 3.2617573e-21 -2.0805291e-37 -4.1047496e-54)
(-4.8995923e-21 1.6531267e-20 1.3775892e-36 4.8995923e-21 -8.7629099e-37 -1.5287475e-52)
(-7.3029813e-21 2.2742641e-20 8.1847758e-37 7.3029813e-21 -4.5531366e-37 -3.5629919e-53)
(-1.0653363e-20 3.0126363e-20 9.135318e-37 1.0653363e-20 -8.7295505e-37 -4.7813654e-53)
(-1.5069477e-20 3.8135071e-20 4.068853e-36 1.5069477e-20 -2.8122677e-36 -5.9655905e-52)
(-2.0231539e-20 4.5203603e-20 -1.1387447e-38 2.0231539e-20 -3.8796456e-38 2.7630799e-56)
(-2.5346385e-20 4.9341836e-20 -1.4061564e-35 2.5346385e-20 -1.1877269e-35 4.8895361e-51)
(-2.942822e-20 4.9307455e-20 -7.3613792e-36 2.942822e-20 -1.768106e-35 6.1992823e-51)
(-3.4731844e-20 4.9722806e-20 -1.0457222e-35 3.4731844e-20 -1.4972037e-35 5.3164219e-51)
(-3.9151309e-20 4.7799945e-20 -4.4055976e-35 3.9151309e-20 -8.3764881e-35 1.4446386e-49)
(-4.2944687e-20 4.4494395e-20 -2.7262964e-35 4.2944687e-20 -7.3336202e-35 9.8579152e-50)
(-4.1152529e-20 3.5857388e-20 2.0787213e-35 4.1152529e-20 6.8841977e-35 9.3940275e-50)
(-4.0363146e-20 2.9153578e-20 2.1613727e-35 4.0363146e-20 6.2890995e-35 8.876116e-50)
(-2.562974e-20 1.50067e-20 -2.0165343e-37 2.562974e-20 1.5461134e-37 -1.547805e-54)
(-2.7037306e-20 1.2380045e-20 8.4648366e-36 2.7037306e-20 3.923615e-35 5.4178975e-50)
(6.3347156e-21 -2.1385938e-21 -1.5672184e-36 -6.3347156e-21 -8.9706574e-36 -1.240085e-50)
(-2.6202163e-20 5.8239081e-21 -6.1234449e-37 2.6202163e-20 1.8754101e-37 -1.421427e-53)
(7.7950297e-20 -8.8677618e-21 2.5623047e-36 -7.7950297e-20 5.182788e-35 -3.4318758e-50)
(-4.2490014e-20 9.6858542e-22 -4.1209953e-37 4.2490014e-20 -2.8275348e-35 1.8814805e-50)
(3.8481313e-19 -2.7607547e-21 -9.4596541e-40 -3.8481313e-19 -2.6830051e-40 2.1287774e-60)
(1.5821075e-19 -6.8196617e-22 -7.2184207e-41 -1.5821075e-19 4.1391111e-41 2.2267943e-62)
(4.5570874e-19 -1.3743326e-21 9.5212457e-40 -4.5570874e-19 -1.3873389e-40 1.9487946e-60)
(3.3634907e-19 -7.0797328e-22 -1.9061951e-40 -3.3634907e-19 2.2871324e-41 1.0652889e-61)
(5.1775414e-19 -7.943553e-22 3.5664626e-37 -5.1775414e-19 3.6124345e-34 -2.5204393e-49)
(4.603975e-19 -4.9915952e-22 2.1981624e-37 -4.603975e-19 3.2190499e-34 -2.2507248e-49)
(5.538627e-19 -4.1625945e-22 7.4352173e-40 -5.538627e-19 1.0815625e-41 9.9789206e-61)
(5.2170831e-19 -2.4519743e-22 -6.960828e-40 -5.2170831e-19 1.652597e-42 9.2873641e-61)
(5.5669951e-19 -1.3431254e-22 -4.0127869e-40 -5.5669951e-19 -1.5208779e-42 2.8924396e-61)
(5.2866671e-19 -2.1413516e-23 -2.347783e-38 -5.2866671e-19 3.6561735e-34 -2.5285505e-49)
(5.2723309e-19 7.1411769e-23 -7.6206689e-38 -5.2723309e-19 3.6405295e-34 -2.5137753e-49)
(4.944418e-19 1.4796049e-22 5.8507876e-38 -4.944418e-19 -1.7119554e-34 -5.9274751e-50)
(4.7105454e-19 2.1131711e-22 -1.3909668e-37 -4.7105454e-19 4.974628e-34 -5.2535154e-49)
(4.3316214e-19 2.5473282e-22 -3.3467164e-37 -4.3316214e-19 9.1499712e-34 -1.932809e-48)
(3.9884375e-19 2.8644919e-22 -9.2685035e-38 -3.9884375e-19 2.8383058e-34 -2.0198332e-49)
(3.5879299e-19 3.0197194e-22 -8.9306139e-42 -3.5879299e-19 -9.8220546e-41 -2.6661715e-62)
(3.2108671e-19 3.0791365e-22 2.6482441e-41 -3.2108671e-19 8.2750763e-43 2.1822028e-63)
(2.8234914e-19 3.0260155e-22 5.0947669e-41 -2.8234914e-19 2.3881809e-43 9.1929836e-63)
(2.4621646e-19 2.9065255e-22 -1.5397254e-40 -2.4621646e-19 -3.4097013e-42 9.6245079e-62)
(2.1158032e-19 2.7211972e-22 1.6125999e-40 -2.1158032e-19 -2.9008289e-41 1.1887319e-61)
(1.7998456e-19 2.5002295e-22 -7.7137065e-38 -1.7998456e-19 6.2689171e-35 -2.1834829e-50)
(1.5103719e-19 2.2506913e-22 -4.6035107e-37 -1.5103719e-19 4.2378847e-34 -1.1890888e-48)
(1.2532545e-19 1.9922126e-22 -3.46012e-37 -1.2532545e-19 3.0831738e-34 -7.5850186e-49)
(1.0260526e-19 1.7320116e-22 -2.5791977e-41 -1.0260526e-19 7.1743064e-43 6.4777088e-63)
(8.2950721e-20 1.4814102e-22 7.5158574e-42 -8.2950721e-20 1.4429011e-43 6.8077753e-64)
(6.6112749e-20 1.2454769e-22 -5.8198528e-43 -6.6112749e-20 -2.6694148e-43 4.0541879e-66)
(5.1931857e-20 1.0295703e-22 5.6849679e-42 -5.1931857e-20 2.7180313e-43 6.2102504e-64)
(4.0121085e-20 8.3558698e-23 -3.275403e-42 -4.0121085e-20 -5.8342968e-42 -5.7902361e-64)
(3.0472119e-20 6.6555595e-23 -8.0125662e-43 -3.0472119e-20 4.5527481e-42 -6.5966342e-64)
(2.2679696e-20 5.1862091e-23 1.5513684e-38 -2.2679696e-20 -7.9477459e-36 -2.7851633e-51)
(1.6502021e-20 3.9481826e-23 1.1778002e-38 -1.6502021e-20 -5.7802644e-36 -2.0246884e-51)
(1.1680991e-20 2.9237295e-23 -2.3961498e-44 -1.1680991e-20 1.6648441e-42 -2.3724991e-64)
(7.9785629e-21 2.0883751e-23 8.0429632e-43 -7.9785629e-21 -2.3198825e-42 -5.9468074e-64)
(5.2132085e-21 1.4270303e-23 -1.2291469e-42 -5.2132085e-21 7.5254216e-43 1.801983e-64)
(3.19136e-21 9.1388075e-24 -2.7184322e-39 -3.19136e-21 1.1240217e-36 -3.9588905e-52)
(1.7495197e-21 5.2438218e-24 -1.5584912e-39 -1.7495197e-21 6.163637e-37 -2.1714767e-52)
(7.7486242e-22 2.4332753e-24 1.9598799e-43 -7.7486242e-22 5.3623854e-44 4.5945485e-65)
(1.3318055e-22 4.3866178e-25 -6.2478956e-40 -1.3318055e-22 2.8311201e-37 -6.0183198e-52)
(-2.5089375e-22 -8.6805922e-25 1.237748e-39 2.5089375e-22 -5.3405273e-37 1.1367838e-51)
(-4.5538839e-22 -1.6581056e-24 6.063299e-44 4.5538839e-22 -3.5909835e-44 -5.2064485e-66)
(-5.365138e-22 -2.0605561e-24 1.0882687e-43 5.365138e-22 3.37961e-44 -1.9998001e-65)
(-5.3686009e-22 -2.1808517e-24 2.0792811e-39 5.3686009e-22 -7.6413639e-37 1.0876267e-51)
(-4.9074671e-22 -2.1152858e-24 2.0206944e-39 4.9074671e-22 -6.9973858e-37 9.9773077e-52)
(-4.1905003e-22 -1.9239516e-24 -1.5077785e-43 4.1905003e-22 -6.9370065e-45 -5.4158127e-65)
(-3.4027439e-22 -1.6715366e-24 5.0345747e-40 3.4027439e-22 -1.2270384e-37 4.4247299e-53)
(-2.6266299e-22 -1.3882017e-24 4.1978439e-40 2.6266299e-22 -9.5099884e-38 3.4431882e-53)
(-1.9401565e-22 -1.1103141e-24 -1.402963e-43 1.9401565e-22 -1.1023e-46 -1.0144837e-64)
(-1.3639527e-22 -8.5201044e-25 -1.6546638e-44 1.3639527e-22 -5.4582175e-46 -2.0059015e-66)
(-9.1047829e-23 -6.2706897e-25 3.6167294e-44 9.1047829e-23 3.3743668e-46 -1.4366793e-65)
(-5.7197351e-23 -4.3971276e-25 1.3704398e-40 5.7197351e-23 -2.1333216e-38 7.9567561e-54)
(-3.340208e-23 -2.9121207e-25 9.2026764e-41 3.340208e-23 -1.2613231e-38 4.7629749e-54)
(-1.7775959e-23 -1.7943891e-25 4.8239072e-45 1.7775959e-23 5.0922502e-47 -1.3090757e-66)
(-8.3490283e-24 -1.003128e-25 1.2958094e-45 8.3490283e-24 -5.3258495e-48 -2.0106359e-67)
(-3.2920106e-24 -4.8994775e-26 5.0847967e-46 3.2920106e-24 -7.7617568e-48 -7.846774e-68)
(-9.8749052e-25 -1.9425406e-26 5.9688941e-48 9.8749052e-25 2.0927724e-47 4.023063e-70)
(-1.8049281e-25 -5.299724e-27 -2.1833419e-42 1.8049281e-25 8.5811242e-41 4.0796395e-56)
(-9.5963828e-27 -5.7177342e-28 1.0294059e-43 9.5963828e-27 -3.4093178e-42 1.2101898e-57)
(-1.2589603e-31 1.2131434e-31 5.0444911e-46 1.2589603e-31 4.6560932e-46 1.7091756e-60)
(-1.3888637e-26 7.1487887e-28 3.7007036e-47 1.3888637e-26 -4.3635171e-48 -9.8173169e-68)
(-1.9005801e-25 4.9486289e-27 -7.1799193e-43 1.9005801e-25 -3.9890268e-41 8.3718162e-57)
(-8.8370127e-25 1.5235342e-26 -2.4587924e-46 8.8370127e-25 8.5612459e-44 8.2907305e-63)
(-2.6082989e-24 3.3319693e-26 6.9307386e-42 2.6082989e-24 7.1331732e-40 1.9507612e-55)
(-5.9807598e-24 6.0230992e-26 1.549392e-44 5.9807598e-24 -9.3113441e-46 -4.0038532e-65)
(-1.1661931e-23 9.6297937e-26 -4.5897678e-45 1.1661931e-23 8.574e-46 -1.7488043e-66)
(-2.0333869e-23 1.4140808e-25 -1.2868814e-44 2.0333869e-23 9.1865058e-46 -8.1105523e-66)
(-3.2616637e-23 1.9478955e-25 -2.9161487e-44 3.2616637e-23 -2.0775071e-45 -2.5916912e-65)
(-4.9078946e-23 2.5540596e-25 -4.8484563e-44 4.9078946e-23 -2.8763653e-45 -4.7697938e-65)
(-7.0217712e-23 3.2197531e-25 8.3794043e-44 7.0217712e-23 -2.7546656e-45 -9.9915285e-65)
(-9.6346984e-23 3.9278007e-25 -6.4087174e-44 9.6346984e-23 8.8743019e-45 -4.1858941e-65)
(-1.2773942e-22 4.6618043e-25 -2.9903246e-45 1.2773942e-22 -5.9556434e-45 2.0868485e-67)
(-1.6450739e-22 5.4032589e-25 6.5130037e-43 1.6450739e-22 2.3600481e-44 -2.5745326e-63)
(-2.065206e-22 6.1322237e-25 9.8341677e-44 2.065206e-22 1.1448634e-45 -4.6818675e-65)
(-2.5372148e-22 6.8322869e-25 -1.5357531e-42 2.5372148e-22 -1.5663168e-44 -9.2942296e-63)
(-3.0575207e-22 7.4831303e-25 1.8716362e-40 3.0575207e-22 9.8009672e-38 3.1417263e-53)
(-3.6220872e-22 8.0707261e-25 2.0175307e-40 3.6220872e-22 1.1655882e-37 3.7508633e-53)
(-4.2240672e-22 8.5737064e-25 -2.1274989e-40 4.2240672e-22 -1.3606501e-37 4.3829046e-53)
(-4.8609759e-22 8.9842993e-25 -2.2396134e-40 4.8609759e-22 -1.571067e-37 5.0776863e-53)
(-5.5188699e-22 9.2802285e-25 -6.0455486e-43 5.5188699e-22 4.882903e-45 -6.6222187e-64)
(-6.1975009e-22 9.4604042e-25 2.3264505e-40 6.1975009e-22 2.0066344e-37 6.4971047e-53)
(-6.8795662e-22 9.4995568e-25 2.360991e-40 6.8795662e-22 2.2338344e-37 7.2533869e-53)
(-7.5675066e-22 9.4101001e-25 -4.6465969e-40 7.5675066e-22 -4.9142815e-37 3.1912969e-52)
(-8.2317822e-22 9.1554867e-25 -4.4665817e-40 8.2317822e-22 -5.3597769e-37 3.4897919e-52)