y,k
0,1e-10
0.00048240845,3.3141888e-07
0.00098049384,3.0225784e-07
0.0014947656,1.0694692e-06
0.0020257498,3.0594825e-06
0.0025739895,7.0805065e-06
0.0031400454,1.4175382e-05
0.0037244966,2.56306e-05
0.0043279408,4.299836e-05
0.0049509953,6.8115635e-05
0.0055942973,0.00010311046
0.0062585048,0.00015038302
0.0069442972,0.00021254567
0.007652376,0.00029230425
0.0083834654,0.00039226736
0.0091383131,0.00051468446
0.0099176913,0.00066113982
0.010722397,0.00083226169
0.011553254,0.0010275303
0.012411111,0.0012452631
0.013296846,0.0014828112
0.014211364,0.001736931
0.015155603,0.0020042344
0.016130526,0.0022815993
0.017137132,0.0025664499
0.018176449,0.0028568722
0.019249542,0.0031515841
0.020357507,0.0034498096
0.021501477,0.0037511192
0.022682624,0.0040552794
0.023902154,0.0043621413
0.025161316,0.0046715724
0.026461397,0.0049834273
0.027803728,0.0052975441
0.02918968,0.0056137541
0.030620672,0.0059318967
0.032098167,0.0062518324
0.033623676,0.0065734524
0.03519876,0.0068966842
0.03682503,0.0072214935
0.03850415,0.0075478835
0.040237836,0.0078758926
0.042027862,0.0082055913
0.043876059,0.0085370785
0.045784317,0.0088704784
0.047754588,0.0092059366
0.049788888,0.0095436182
0.051889297,0.0098837047
0.054057963,0.010226392
0.056297104,0.010571889
0.058609012,0.010920416
0.06099605,0.011272204
0.06346066,0.011627495
0.066005363,0.011986539
0.068632762,0.012349595
0.071345544,0.012716931
0.074146484,0.013088823
0.077038447,0.013465556
0.08002439,0.013847423
0.083107369,0.014234726
0.086290535,0.014627775
0.089577146,0.01502689
0.092970562,0.015432397
0.096474255,0.015844634
0.10009181,0.016263943
0.10382692,0.016690681
0.10768342,0.017125209
0.11166524,0.017567896
0.11577645,0.018019123
0.12002127,0.018479275
0.12440404,0.018948745
0.12892923,0.019427935
0.13360148,0.019917249
0.13842557,0.020417098
0.14340642,0.020927895
0.14854914,0.021450055
0.15385898,0.021983996
0.15934138,0.02253013
0.16500194,0.023088867
0.17084645,0.023660611
0.17688089,0.024245755
0.18311143,0.02484468
0.18954445,0.02545775
0.19618653,0.026085308
0.20304445,0.026727673
0.21012524,0.027385131
0.21743614,0.028057937
0.22498461,0.0287463
0.23277839,0.029450385
0.24082545,0.0301703
0.24913402,0.030906095
0.25771259,0.031657747
0.26656994,0.032425161
0.27571513,0.033208153
0.28515751,0.034006448
0.29490674,0.03481967
0.3049728,0.035647325
0.31536597,0.036489208
0.3260969,0.037346811
0.33717655,0.038222372
0.34861625,0.039115071
0.36042772,0.040021071
0.37262303,0.040936375
0.38521464,0.04185778
0.39821546,0.042782719
0.41163876,0.043708991
0.42549828,0.044634546
0.4398082,0.045557326
0.45458315,0.046475165
0.46983824,0.047385714
0.48558908,0.048286386
0.50185179,0.049174308
0.51864298,0.050046277
0.53597984,0.05089871
0.5538801,0.051727606
0.57236207,0.052528552
0.59144465,0.053296739
0.61114736,0.054026963
0.63149036,0.054713628
0.65249445,0.055350759
0.67418111,0.055931979
0.69657252,0.056450492
0.7196916,0.05689905
0.74356198,0.057269908
0.76820808,0.057554759
0.79365511,0.05774465
0.8199291,0.057829894
0.84705692,0.057800285
0.87506632,0.057644136
0.90398595,0.057348449
0.93384539,0.056899464
0.94954502,0.05658473
0.96467517,0.056281335
0.99650683,0.055475925
1.0293729,0.054462763
1.0633071,0.053219681
1.098344,0.051726229
1.1345196,0.049968923
1.1718707,0.047952277
1.2104356,0.045709909
1.2502538,0.043290014
1.291366,0.040696365
1.3338142,0.037832198
1.3776419,0.034526664
1.4228938,0.030583439
1.4696163,0.025772924
1.5178571,0.019863393
1.566098,0.01280303
1.6128205,0.0058313652
1.6580724,0.0015113147
1.7019001,0.00019482939
1.7443483,1.6765006e-05
1.7854605,1.9582613e-06
1.8252786,4.2330899e-07
1.8638436,1.2883319e-07
1.9011947,4.4921926e-08
1.9373703,1.7621463e-08
1.9724072,8.3401242e-09
2.0063413,5.067205e-09
2.0163351,4.6862239e-09
2.0392075,3.8135863e-09
2.0710391,3.2316908e-09
2.1018689,2.8750617e-09
2.1317283,2.6087e-09
2.160648,2.4018892e-09
2.1886574,2.2534704e-09
2.2157852,2.162317e-09
2.2420592,2.1205298e-09
2.2675062,2.117678e-09
2.2921523,2.1584564e-09
2.3160227,2.2893631e-09
2.3391418,2.6137793e-09
2.3615332,3.3314864e-09
2.3832198,4.8367209e-09
2.4042239,7.9129488e-09
2.4245669,1.4140678e-08
2.4442696,2.6657536e-08
2.4633522,5.0528739e-08
2.4818342,9.394865e-08
2.4997344,1.7550856e-07
2.5170713,3.3087606e-07
2.5338625,6.0003873e-07
2.5501252,1.055747e-06
2.565876,2.0282285e-06
2.5811311,5.0720502e-06
2.5959061,1.7453529e-05
2.610216,6.4195718e-05
2.6240755,0.00019402251
2.6374988,0.00044017239
2.6504996,0.0007746195
2.6630913,0.0011447335
2.6752866,0.0015191392
2.687098,0.0018836357
2.6985377,0.0022376128
2.7096174,0.0025850867
2.7203483,0.0029211994
2.7307415,0.0032365446
2.7408075,0.0035257755
2.7505568,0.0037877691
2.7599992,0.004024909
2.7691443,0.0042411951
2.7780017,0.0044394843
2.7865803,0.0046209991
2.7948888,0.004786611
2.8029359,0.0049373701
2.8107297,0.0050744399
2.8182781,0.0051990293
2.825589,0.0053123372
2.8326698,0.0054155167
2.8395278,0.0055096555
2.8461698,0.0055957662
2.8526028,0.0056747843
2.8588334,0.005747569
2.8648678,0.0058149055
2.8707123,0.0058775087
2.8763729,0.0059360283
2.8818553,0.0059910519
2.8871651,0.006043109
2.8923079,0.006092675
2.8972887,0.0061401753
2.9021128,0.0061859879
2.9067851,0.0062304463
2.9113102,0.0062738427
2.915693,0.006316429
2.9199378,0.0063584193
2.924049,0.0063999908
2.9280309,0.0064412849
2.9318874,0.0064824176
2.9356225,0.0065234501
2.93924,0.006564428
2.9427437,0.006605381
2.9461371,0.0066462799
2.9494237,0.0066870733
2.9526069,0.0067276824
2.9556899,0.0067680007
2.9586758,0.0068078955
2.9615678,0.0068472103
2.9643687,0.0068857665
2.9670815,0.0069233674
2.9697089,0.0069597999
2.9722536,0.0069948201
2.9747182,0.0070281444
2.9771053,0.0070593754
2.9794172,0.0070879535
2.9816563,0.0071132291
2.983825,0.0071345176
2.9859254,0.0071511187
2.9879597,0.0071623175
2.98993,0.007167398
2.9918382,0.0071656378
2.9936864,0.0071562926
2.9954764,0.0071386019
2.9972101,0.0071117851
2.9988893,0.007075035
3.0005155,0.0070275124
3.0020906,0.0069683421
3.0036161,0.0068966095
3.0050936,0.0068113587
3.0065246,0.0067115938
3.0079106,0.0065962814
3.0092529,0.0064643542
3.010553,0.0063147223
3.0118121,0.0061463032
3.0130317,0.0059580598
3.0142128,0.0057490435
3.0153568,0.0055184528
3.0164647,0.0052657106
3.0175378,0.0049905602
3.0185772,0.0046931752
3.0195838,0.00437426
3.0205587,0.0040350052
3.0215029,0.0036767693
3.0224174,0.0033021762
3.0233032,0.0029163388
3.024161,0.0025265319
3.0249919,0.0021417737
3.0257966,0.0017721904
3.026576,0.001427939
3.0273308,0.0011178779
3.0280619,0.00084835084
3.02877,0.00062247038
3.0294558,0.00044009418
3.03012,0.00029839437
3.0307633,0.0001927213
3.0313863,0.00011745472
3.0319898,6.6671116e-05
3.0325742,3.4611146e-05
3.0331403,1.6008243e-05
3.0336885,6.3432958e-06
3.0342195,2.0412329e-06
3.0347338,6.0366064e-07
3.0352319,1.1408745e-06
3.0357122,4.962112e-09
