/*--------------------------------*- C++ -*----------------------------------*\
| =========                 |                                                 |
| \\      /  F ield         | OpenFOAM: The Open Source CFD Toolbox           |
|  \\    /   O peration     | Version:  2.4.0                                 |
|   \\  /    A nd           | Web:      www.OpenFOAM.org                      |
|    \\/     M anipulation  |                                                 |
\*---------------------------------------------------------------------------*/
FoamFile
{
    version     2.0;
    format      ascii;
    class       volVectorField;
    location    "5000";
    object      U;
}
// * * * * * * * * * * * * * * * * * * * * * * * * * * * * * * * * * * * * * //

dimensions      [0 1 -1 0 0 0 0];

internalField   nonuniform List<vector> 
9789
(
(0.0079756102 -4.8908406e-05 8.7234944e-26)
(0.0061498312 -0.00019108597 2.8062578e-20)
(0.0067798365 -0.00045717485 0)
(0.0041742631 -0.00049188448 0)
(0.0026087035 -0.00046919717 0)
(-0.00035214851 7.7934823e-05 1.4220457e-19)
(-0.0017321032 0.00056923296 1.57426e-19)
(-0.0023850257 0.0010040926 -1.726375e-19)
(-0.0019239271 0.00097251156 3.3762523e-25)
(-0.0016081271 0.00092879322 3.5235971e-19)
(-0.0012020255 0.00076922157 -3.5009714e-19)
(-0.00099782438 0.00069082514 3.4994246e-19)
(-0.00085021609 0.00062595239 -3.4851859e-19)
(-0.00077183606 0.00059571176 3.492879e-19)
(-0.00069877107 0.00055967684 6.2385858e-24)
(-0.00065680106 0.00054090024 3.5243042e-19)
(-0.00061054401 0.00051310714 7.1061117e-19)
(-0.00057438167 0.00048904017 -3.5924824e-19)
(-0.00053613991 0.00045945648 -3.638692e-19)
(-0.00050401862 0.00043191672 3.6934821e-19)
(-0.00047486134 0.00040432681 1.4313295e-24)
(-0.00045497083 0.00038303834 -3.8232769e-19)
(-0.00044203604 0.0003679048 -7.7782163e-19)
(-0.00043394235 0.00035729537 0)
(-0.00043147571 0.00035169875 0)
(-0.00043420794 0.00035062944 0)
(-0.000442344 0.0003541424 4.1265256e-19)
(-0.00045641836 0.00036256208 7.7522066e-25)
(-0.00047612894 0.00037557634 -4.2314219e-19)
(-0.00050212217 0.00039363276 -8.5620993e-19)
(-0.00053382879 0.00041626054 -3.3019825e-24)
(-0.00057132414 0.00044351128 2.3057502e-24)
(-0.00061348324 0.00047454156 -7.5256543e-24)
(-0.00065849328 0.00050800202 7.1658157e-24)
(-0.00070222382 0.00054008389 4.5142196e-19)
(-0.00074479645 0.00056947851 -4.5666567e-19)
(-0.00078722066 0.00059651426 4.6249917e-19)
(-0.00082853261 0.00062015579 -9.3785772e-19)
(-0.00086873852 0.00064009864 4.7596458e-19)
(-0.00090672975 0.000655247 0)
(-0.00094186676 0.00066489812 4.9184537e-19)
(-0.00097295682 0.00066803955 0)
(-0.00099944575 0.00066419892 -5.0996729e-19)
(-0.0010200702 0.00065255504 5.199184e-19)
(-0.0010352688 0.00063350761 5.3018187e-19)
(-0.0010445096 0.00060694497 -5.4095928e-19)
(-0.0010533915 0.00057672431 0)
(-0.0010617711 0.00054453575 -1.6927162e-24)
(-0.0010662124 0.00050921608 -5.729536e-19)
(-0.0010650768 0.00047045223 -4.3113303e-25)
(-0.0010588101 0.00042902359 -2.9601305e-19)
(-0.0010436443 0.00038414104 -6.0070165e-19)
(-0.0010240033 0.00033827953 -3.0418226e-19)
(-0.00099174362 0.00028964282 1.8764896e-23)
(-0.00095962207 0.00024295459 -9.4758623e-24)
(-0.00091065456 0.00019468859 9.5154606e-24)
(-0.00087676171 0.00015244653 -1.5675802e-19)
(-0.00082152578 0.00010968318 -3.1420861e-19)
(-0.00082196909 7.6222854e-05 7.835016e-20)
(-0.0007991758 4.1231283e-05 7.8124325e-20)
(-0.00096684403 1.1522778e-05 -1.8897909e-23)
(-0.0012958514 3.7872175e-07 9.4098121e-24)
(-0.001524565 3.3894286e-07 0)
(-0.0017487446 3.1889426e-07 9.2942928e-24)
(-0.0019349394 3.2651331e-07 -9.2942532e-24)
(-0.0021133645 3.2065728e-07 9.25986e-24)
(-0.0022677957 3.2820506e-07 -5.9224865e-27)
(-0.0024138083 3.2857786e-07 1.4826895e-27)
(-0.0025440997 3.3600513e-07 7.5836107e-27)
(-0.0026668485 3.3962115e-07 -9.2628897e-24)
(-0.0027788318 3.4649172e-07 0)
(-0.0028844446 3.5235329e-07 5.0841123e-17)
(-0.0029823031 3.5825669e-07 5.0926479e-17)
(-0.0030748244 3.6469441e-07 -9.3854494e-24)
(-0.003161447 3.7010782e-07 -3.9378504e-26)
(-0.0032435266 3.7524623e-07 1.8893491e-23)
(-0.0033208607 3.8013999e-07 -9.4686821e-24)
(-0.0033942213 3.8455873e-07 0)
(-0.0034635514 3.8840163e-07 -9.6258825e-24)
(-0.0035293006 3.9073771e-07 9.6258682e-24)
(-0.0035914639 3.9522351e-07 9.750838e-24)
(-0.0036502953 3.966015e-07 -9.7508249e-24)
(-0.0037058153 3.9787885e-07 0)
(-0.0037581675 3.9842611e-07 0)
(-0.0038073713 3.9864675e-07 0)
(-0.0038535005 3.9774617e-07 -1.012835e-23)
(-0.003896581 3.9495414e-07 -8.6002295e-26)
(-0.0039366441 3.9493569e-07 1.0214334e-23)
(-0.0039737035 3.911869e-07 -1.0396144e-23)
(-0.0040077891 3.8735192e-07 5.1502494e-24)
(-0.0040389177 3.8284026e-07 5.2458839e-24)
(-0.0040671244 3.7782226e-07 0)
(-0.0040924215 3.7235834e-07 0)
(-0.0041148487 3.6508409e-07 0)
(-0.0041344264 3.5731544e-07 0)
(-0.0041511712 3.5216552e-07 0)
(-0.0041651361 3.4231314e-07 0)
(-0.0041763322 3.3520744e-07 0)
(0.024010073 -0.000155834 3.1510369e-25)
(0.018868078 -0.00057658468 -2.1608551e-20)
(0.020547653 -0.0013706986 0)
(0.01298941 -0.0014881581 -3.2467825e-25)
(0.0082397569 -0.0014292102 8.4472392e-20)
(-0.00057755577 0.00018518262 -6.8501787e-23)
(-0.0049060612 0.0016643328 -2.42378e-19)
(-0.0070202033 0.002987651 2.6593035e-19)
(-0.0057430488 0.002914399 0)
(-0.0048183793 0.0027908144 -5.4268813e-19)
(-0.0036181397 0.0023182643 0)
(-0.0030054799 0.00208421 -2.5779449e-25)
(-0.0025634284 0.0018903066 5.3691594e-19)
(-0.002326855 0.0017993607 -5.3810683e-19)
(-0.0021079863 0.0016914175 1.0787547e-18)
(-0.0019811131 0.0016347595 -5.4295587e-19)
(-0.0018426299 0.0015513466 -1.6407391e-23)
(-0.0017339763 0.0014788949 0)
(-0.0016196647 0.0013900222 2.1412073e-24)
(-0.0015235601 0.0013072049 -2.1677777e-24)
(-0.0014366063 0.0012243221 0)
(-0.0013772771 0.0011603138 -5.8900901e-19)
(-0.0013388918 0.0011148632 5.9915999e-19)
(-0.0013151628 0.0010831138 6.0888693e-19)
(-0.0013083504 0.0010664996 4.7160169e-24)
(-0.0013172149 0.0010635731 -6.2716622e-19)
(-0.0013423456 0.0010744918 4.8492912e-24)
(-0.0013853162 0.0011002146 -6.4396817e-19)
(-0.001445234 0.0011398076 1.3037574e-18)
(-0.0015239656 0.001194583 6.5952792e-19)
(-0.0016198078 0.0012631209 -5.0869089e-24)
(-0.0017328986 0.001345532 6.7411468e-19)
(-0.0018598442 0.0014392554 6.8117313e-19)
(-0.0019951996 0.0015402104 -1.3762809e-18)
(-0.0021267882 0.0016370304 -1.0613453e-23)
(-0.0022548958 0.001725742 1.0732091e-23)
(-0.0023824704 0.0018072749 -1.0876689e-23)
(-0.002506711 0.0018785414 7.2240415e-19)
(-0.0026276018 0.001938604 -7.3322742e-19)
(-0.0027419005 0.0019841914 -1.1376425e-23)
(-0.0028476954 0.0020131835 -7.5765698e-19)
(-0.0029414827 0.0020225578 0)
(-0.0030216241 0.0020108936 7.8555643e-19)
(-0.0030844598 0.0019757676 -8.0086638e-19)
(-0.0031312952 0.0019183697 -1.2470992e-23)
(-0.0031607018 0.0018384474 3.3558656e-23)
(-0.0031889744 0.0017474097 -1.2964516e-23)
(-0.0032157286 0.0016503119 -5.4109289e-24)
(-0.0032309047 0.0015437374 1.3469784e-23)
(-0.0032296272 0.0014267708 -4.4889441e-19)
(-0.0032131065 0.0013016852 7.618566e-25)
(-0.0031704447 0.0011662292 4.6263351e-19)
(-0.0031143861 0.0010276509 1.4290437e-23)
(-0.0030215176 0.0008808244 4.7365291e-19)
(-0.002928723 0.00073955369 1.4566197e-23)
(-0.0027873862 0.00059379448 4.8114006e-19)
(-0.0026900204 0.00046566374 -1.5625796e-23)
(-0.0025327975 0.0003365538 -9.2272678e-25)
(-0.0025393689 0.00023472963 1.206821e-19)
(-0.0024865075 0.00012983839 1.2030399e-19)
(-0.0029947272 4.1703773e-05 -1.4896999e-20)
(-0.0039727142 7.6712705e-06 2.8534097e-23)
(-0.0046597877 6.39694e-06 0)
(-0.0053296574 5.6932309e-06 1.4314557e-23)
(-0.005887643 5.1358624e-06 -2.8595185e-23)
(-0.0064205658 4.6375063e-06 1.4280656e-23)
(-0.0068827098 4.2276455e-06 -1.4251756e-23)
(-0.0073187691 3.8635376e-06 -2.283308e-27)
(-0.0077083297 3.5610739e-06 -1.1679104e-26)
(-0.0080748695 3.2924526e-06 1.4265136e-23)
(-0.0084094714 3.064227e-06 -1.4316116e-23)
(-0.008724768 2.8633953e-06 -3.8247995e-26)
(-0.0090169888 2.6848713e-06 -4.5946155e-26)
(-0.0092930934 2.5285433e-06 2.8853269e-23)
(-0.009551591 2.3848691e-06 -2.8967181e-23)
(-0.0097963944 2.2545813e-06 1.4513787e-23)
(-0.010026995 2.1346721e-06 0)
(-0.010245627 2.0232432e-06 1.4736221e-23)
(-0.010452171 1.9180873e-06 8.7074418e-26)
(-0.010647931 1.8155157e-06 -1.4823086e-23)
(-0.01083292 1.7252075e-06 0)
(-0.011007877 1.6308876e-06 0)
(-0.011172879 1.5407683e-06 0)
(-0.011328346 1.4524889e-06 -1.5347504e-23)
(-0.011474344 1.3667321e-06 1.5347426e-23)
(-0.011611091 1.2809467e-06 0)
(-0.011738671 1.1924314e-06 1.5728812e-23)
(-0.011857175 1.1151252e-06 -3.1595009e-23)
(-0.011966653 1.0293389e-06 1.5866202e-23)
(-0.012067194 9.4597252e-07 0)
(-0.012158853 8.6335034e-07 0)
(-0.012241736 7.818756e-07 0)
(-0.012315884 7.0182505e-07 -8.3124655e-24)
(-0.01238142 6.187909e-07 8.3124475e-24)
(-0.012438403 5.3691916e-07 8.4794973e-24)
(-0.01248689 4.6543418e-07 8.6500888e-26)
(-0.012527039 3.8258341e-07 -1.7220324e-23)
(-0.012558889 3.1191789e-07 8.6543414e-24)
(0.040384497 -0.00027551588 2.5200619e-21)
(0.032231196 -0.00097313976 2.2303964e-20)
(0.034753988 -0.002292323 -2.9827863e-20)
(0.02244094 -0.0025214633 0)
(0.014401045 -0.0024406881 -8.7195101e-20)
(-0.00029913393 0.00020205777 -7.016725e-23)
(-0.0078273656 0.0026898538 2.5023093e-19)
(-0.011594764 0.0049409124 0)
(-0.0095995689 0.0048623951 0)
(-0.0080803705 0.0046702697 5.6031957e-19)
(-0.0060900526 0.0038931631 5.5674764e-19)
(-0.0050616198 0.0035046087 -5.5655689e-19)
(-0.004320408 0.0031822965 -5.5434706e-19)
(-0.003921474 0.0030299582 -2.6552589e-25)
(-0.0035543688 0.002850005 -5.5694358e-19)
(-0.0033401996 0.0027546871 1.07141e-24)
(-0.0031080291 0.0026152261 -5.6521129e-19)
(-0.0029253796 0.0024936537 5.7146751e-19)
(-0.0027338783 0.0023449145 5.7882746e-19)
(-0.0025727264 0.0022061707 0)
(-0.002427207 0.0020675254 -5.9745238e-19)
(-0.0023278518 0.001960405 1.216409e-18)
(-0.0022637887 0.0018844695 9.4395131e-24)
(-0.0022245163 0.0018316683 -1.1939687e-23)
(-0.0022137027 0.0018043379 4.8697114e-24)
(-0.0022293191 0.001800077 6.4760994e-19)
(-0.0022723175 0.0018191397 -1.001621e-23)
(-0.0023453059 0.0018630992 -6.64945e-19)
(-0.0024467972 0.001930401 3.3287691e-24)
(-0.0025798379 0.0020231765 6.8100847e-19)
(-0.0027415749 0.0021390379 6.8864902e-19)
(-0.0029321351 0.0022780825 -6.9606912e-19)
(-0.0031458054 0.0024359636 7.033472e-19)
(-0.0033734495 0.0026057753 7.1053884e-19)
(-0.0035948794 0.0027686345 -7.180632e-19)
(-0.00381045 0.0029178339 2.2169028e-23)
(-0.0040250101 0.0030548283 -2.2451915e-23)
(-0.0042339679 0.0031744949 1.1375832e-23)
(-0.0044372526 0.0032752186 -7.570545e-19)
(-0.0046295225 0.0033515649 -1.1746284e-23)
(-0.0048075779 0.0033999714 1.1927337e-23)
(-0.0049656264 0.0034154183 1.2159313e-23)
(-0.0051009499 0.0033955268 -8.1109965e-19)
(-0.0052075753 0.0033363346 8.2690125e-19)
(-0.0052876888 0.0032398177 8.4318873e-19)
(-0.0053391114 0.00310573 8.6032997e-19)
(-0.0053885645 0.0029528422 -1.339976e-23)
(-0.0054354989 0.0027895549 -8.9467647e-19)
(-0.0054633668 0.0026102775 9.1116238e-19)
(-0.0054640463 0.0024135244 -1.4147565e-23)
(-0.0054394111 0.0022029722 8.2901981e-25)
(-0.0053717384 0.0019750733 5.8296338e-23)
(-0.0052817079 0.0017416082 -4.8372419e-19)
(-0.0051314426 0.0014944818 -4.8902205e-19)
(-0.0049809192 0.0012560895 0)
(-0.0047518147 0.0010105767 -4.9670398e-19)
(-0.0045947879 0.00079369001 4.9852663e-19)
(-0.0043432296 0.00057606142 4.9964521e-19)
(-0.0043618502 0.00040293616 -1.2459396e-19)
(-0.004295093 0.00022700551 4.1548186e-25)
(-0.0051547588 8.0789446e-05 3.0728351e-20)
(-0.0067821817 2.3194748e-05 -1.4887549e-23)
(-0.0079356019 1.9238922e-05 1.4886984e-23)
(-0.009055046 1.7195205e-05 0)
(-0.0099897882 1.5427333e-05 -1.474204e-23)
(-0.010880051 1.3962071e-05 2.0180252e-26)
(-0.011653319 1.2679667e-05 1.4721014e-23)
(-0.01238169 1.1598269e-05 -1.4713583e-23)
(-0.013033024 1.0660198e-05 -1.2055308e-26)
(-0.01364521 9.8558569e-06 1.4724977e-23)
(-0.014204345 9.153164e-06 0)
(-0.01473084 8.54463e-06 0)
(-0.015218904 7.998955e-06 0)
(-0.015679798 7.5210561e-06 0)
(-0.016111295 7.082412e-06 0)
(-0.016519738 6.6857077e-06 0)
(-0.016904415 6.3186654e-06 0)
(-0.017268953 5.9783458e-06 -1.5210403e-23)
(-0.017613227 5.6567676e-06 1.521021e-23)
(-0.017939361 5.3473758e-06 1.5396138e-23)
(-0.018247415 5.0639025e-06 -1.5395964e-23)
(-0.018538598 4.7786769e-06 0)
(-0.018813059 4.5038717e-06 0)
(-0.019071486 4.2352433e-06 0)
(-0.019314002 3.9730846e-06 1.5966563e-23)
(-0.01954097 3.7127777e-06 -1.5966432e-23)
(-0.019752533 3.44916e-06 0)
(-0.01994885 3.2055084e-06 1.637612e-23)
(-0.020130007 2.9487224e-06 1.470349e-25)
(-0.020296159 2.6969728e-06 -3.3197903e-23)
(-0.020447401 2.4476617e-06 1.6674863e-23)
(-0.020583913 2.201448e-06 0)
(-0.020705773 1.9589112e-06 0)
(-0.020813184 1.7123821e-06 0)
(-0.020906252 1.4690998e-06 1.7503716e-23)
(-0.020985077 1.2441889e-06 -8.6625591e-24)
(-0.021049921 1.0024139e-06 -8.8410977e-24)
(0.057108264 -0.00040966998 2.6002421e-21)
(0.046268653 -0.0013798642 3.9756247e-25)
(0.049415867 -0.0032231468 3.0784639e-20)
(0.032565497 -0.0035913904 0)
(0.021130126 -0.0035039457 8.997834e-20)
(0.00053242259 0.00012828154 -7.2230485e-23)
(-0.010460416 0.0036451431 2.5816353e-19)
(-0.016089199 0.006863946 2.832392e-19)
(-0.013486047 0.0068166097 -5.7046822e-19)
(-0.011390237 0.006567627 -5.7835305e-19)
(-0.0086166607 0.0054945508 -5.7484342e-19)
(-0.0071657483 0.0049528049 5.7466617e-19)
(-0.006121071 0.004502745 5.7239505e-19)
(-0.0055556116 0.0042883531 -5.7366081e-19)
(-0.0050380093 0.0040362837 8.2351888e-25)
(-0.0047341204 0.0039015245 -5.5056994e-25)
(-0.0044069063 0.0037055731 5.836011e-19)
(-0.0041488004 0.0035341293 -1.7401789e-23)
(-0.0038791029 0.0033249274 -5.976983e-19)
(-0.0036519347 0.0031295918 0)
(-0.0034472033 0.0029346982 6.1692801e-19)
(-0.0033073286 0.002784061 -6.2803022e-19)
(-0.0032174446 0.0026774656 6.3884457e-19)
(-0.0031628099 0.0026037022 -1.2984641e-18)
(-0.003148422 0.0025659643 5.028414e-24)
(-0.0031714909 0.0025609068 -6.6871043e-19)
(-0.0032333086 0.0025888737 0)
(-0.0033375063 0.0026520313 6.8661403e-19)
(-0.0034820028 0.0027482059 -6.9505049e-19)
(-0.003670974 0.0028803009 1.4597113e-23)
(-0.0039004019 0.0030449411 -7.1109147e-19)
(-0.0041703185 0.0032421349 7.1874395e-19)
(-0.004472639 0.0034656801 -7.2624407e-19)
(-0.0047944776 0.0037057518 -7.3365804e-19)
(-0.0051076954 0.0039359897 7.4140997e-19)
(-0.0054126217 0.0041468816 1.1448392e-23)
(-0.0057159582 0.0043403314 -7.5960233e-19)
(-0.0060113802 0.004509197 7.7013173e-19)
(-0.0062987257 0.0046511421 7.81674e-19)
(-0.006570596 0.0047585781 7.9420757e-19)
(-0.0068224913 0.0048264771 -1.2314899e-23)
(-0.0070463646 0.0048478355 -1.2554295e-23)
(-0.0072384248 0.004819306 -8.3740417e-19)
(-0.0073904836 0.0047354523 1.303766e-23)
(-0.0075056242 0.0045990338 -8.7060896e-19)
(-0.0075810804 0.0044099594 8.8828226e-19)
(-0.0076536776 0.0041941642 -5.5308262e-23)
(-0.0077227711 0.0039633781 -9.2367799e-19)
(-0.0077654892 0.0037099134 -4.6121201e-24)
(-0.0077704604 0.0034317513 2.9204492e-23)
(-0.0077401094 0.0031338758 9.7203757e-19)
(-0.0076502337 0.0028116191 -3.0099963e-23)
(-0.0075290174 0.0024810411 -4.9265669e-25)
(-0.0073250172 0.0021314578 -5.0489871e-19)
(-0.0071201509 0.0017933412 5.0929664e-19)
(-0.0068085104 0.0014457772 0)
(-0.0065961764 0.0011372004 -2.5738461e-19)
(-0.0062588373 0.00082888403 -2.579157e-19)
(-0.006296058 0.00058147556 3.1499633e-23)
(-0.0062329486 0.00033349861 -1.282384e-19)
(-0.0074550817 0.00012942891 -1.5860635e-20)
(-0.0097312441 4.7555115e-05 1.5849745e-23)
(-0.011358708 3.9373454e-05 -1.5367397e-23)
(-0.012931066 3.5266031e-05 0)
(-0.01424718 3.1565707e-05 0)
(-0.015497168 2.8608065e-05 0)
(-0.016584627 2.5943933e-05 0)
(-0.01760719 2.3752598e-05 0)
(-0.018522487 2.181329e-05 0)
(-0.019381842 2.0178174e-05 0)
(-0.020167134 1.8731031e-05 0)
(-0.020906048 1.7487945e-05 0)
(-0.021591163 1.6368127e-05 0)
(-0.022237784 1.5388277e-05 0)
(-0.022843147 1.4488619e-05 0)
(-0.023415891 1.3676362e-05 0)
(-0.023955204 1.2922765e-05 0)
(-0.024466039 1.2224689e-05 0)
(-0.024948321 1.1564336e-05 0)
(-0.025404954 1.0932564e-05 0)
(-0.025836076 1.0343997e-05 0)
(-0.026243352 9.7604936e-06 0)
(-0.026627015 9.1961379e-06 0)
(-0.026988017 8.6447334e-06 0)
(-0.027326548 8.1052142e-06 0)
(-0.027643112 7.5708418e-06 0)
(-0.027937921 7.033817e-06 0)
(-0.028211197 6.5256676e-06 0)
(-0.028463076 6.0010085e-06 0)
(-0.028693776 5.4845132e-06 0)
(-0.028903442 4.9730384e-06 0)
(-0.029092325 4.4674135e-06 0)
(-0.029260547 3.9685156e-06 0)
(-0.0294084 3.4654872e-06 0)
(-0.029536031 2.9688593e-06 0)
(-0.029643593 2.498655e-06 0)
(-0.029731453 2.0082519e-06 0)
(0.07419598 -0.00055803863 -5.3668665e-21)
(0.061008367 -0.0017974839 -2.3756714e-20)
(0.064552879 -0.0041635777 -3.177697e-20)
(0.043398568 -0.0047000786 -2.9950509e-25)
(0.028465459 -0.0046220065 -9.2851652e-20)
(0.0019670448 -4.2855098e-05 -7.6276831e-23)
(-0.012768132 0.0045236712 -8.3971842e-23)
(-0.02048437 0.0087523001 -2.9241921e-19)
(-0.017395457 0.0087747386 1.1778245e-18)
(-0.014744801 0.0084814539 5.9711731e-19)
(-0.011197289 0.0071220031 0)
(-0.0093178009 0.0064287516 -2.8373628e-25)
(-0.0079656847 0.0058518679 2.8099538e-25)
(-0.0072295501 0.0055748322 5.9234392e-19)
(-0.0065593088 0.0052506435 0)
(-0.0061632545 0.0050756749 0)
(-0.005739707 0.0048228405 -6.0262218e-19)
(-0.0054047116 0.0046007972 -6.0932036e-19)
(-0.0050558842 0.0043305814 -6.672721e-27)
(-0.0047617905 0.0040780258 2.3866396e-24)
(-0.0044972788 0.0038264453 0)
(-0.0043164513 0.0036319242 0)
(-0.0042006596 0.0034945295 -6.5966968e-19)
(-0.0041309075 0.0033999343 6.7039077e-19)
(-0.0041134339 0.0033521391 5.1929325e-24)
(-0.0041447199 0.0033468676 6.9049675e-19)
(-0.0042263723 0.0033845457 6.9992361e-19)
(-0.0043630306 0.0034679094 0)
(-0.0045520214 0.0035941674 -7.1769676e-19)
(-0.0047985931 0.0037669448 -7.2608782e-19)
(-0.0050975465 0.003981857 -5.9977572e-27)
(-0.0054487283 0.0042387439 -4.7809138e-27)
(-0.0058416276 0.0045294757 -2.2886035e-23)
(-0.0062595506 0.0048412134 1.515101e-18)
(-0.0066664889 0.0051401699 0)
(-0.0070626487 0.0054139553 1.1820762e-23)
(-0.0074565331 0.0056648455 1.5685623e-18)
(-0.0078401466 0.0058836956 -7.9516126e-19)
(-0.0082131957 0.0060674017 0)
(-0.0085662777 0.0062062363 -8.2000696e-19)
(-0.0088935824 0.0062936833 1.2735834e-23)
(-0.0091848505 0.006320773 8.4870491e-19)
(-0.0094352286 0.0062831809 8.6461214e-19)
(-0.0096344251 0.0061740681 -8.814309e-19)
(-0.009786436 0.0059969736 -8.9884563e-19)
(-0.0098880886 0.0057521153 -9.1703574e-19)
(-0.0099859527 0.0054723749 2.8566385e-23)
(-0.010079347 0.0051727909 9.5363106e-19)
(-0.010139264 0.0048436626 -9.7122476e-19)
(-0.010151093 0.004482478 0)
(-0.010117685 0.0040954256 -5.0176636e-19)
(-0.010008741 0.0036769016 5.0908948e-19)
(-0.0098594836 0.0032469792 5.1557134e-19)
(-0.0096058843 0.0027927813 -3.3104599e-23)
(-0.0093505412 0.0023523128 -5.2575038e-19)
(-0.0089622693 0.0019003821 0)
(-0.0086995849 0.0014971242 -2.6568479e-19)
(-0.0082859773 0.0010959124 -2.6626717e-19)
(-0.0083490517 0.00077116963 0)
(-0.0083084999 0.00045011146 0)
(-0.0099041375 0.00018819994 3.1905977e-23)
(-0.012827154 8.1244818e-05 -3.2381685e-23)
(-0.014935989 6.7248884e-05 3.1589511e-23)
(-0.016964012 6.0289281e-05 -9.8073169e-26)
(-0.018665707 5.388754e-05 -3.1487359e-23)
(-0.02027731 4.886978e-05 0)
(-0.021681639 4.4282172e-05 0)
(-0.022999857 4.0558524e-05 0)
(-0.024180947 3.7228499e-05 0)
(-0.025288635 3.4445666e-05 0)
(-0.026301382 3.1965823e-05 0)
(-0.027253613 2.9844407e-05 0)
(-0.028136688 2.7928789e-05 0)
(-0.028969676 2.6252851e-05 0)
(-0.029749489 2.4713979e-05 0)
(-0.030486915 2.3325447e-05 0)
(-0.031181156 2.2035166e-05 0)
(-0.031838409 2.0840354e-05 0)
(-0.032458711 1.9709359e-05 0)
(-0.033045706 1.8630605e-05 0)
(-0.033599643 1.761613e-05 0)
(-0.034122622 1.6618631e-05 0)
(-0.034614981 1.565173e-05 0)
(-0.035077922 1.4707272e-05 0)
(-0.035511714 1.3781949e-05 0)
(-0.035917006 1.2866783e-05 0)
(-0.036294077 1.1950989e-05 0)
(-0.03664322 1.1072957e-05 0)
(-0.036964626 1.0177007e-05 0)
(-0.037258578 9.2930197e-06 0)
(-0.037525276 8.4175534e-06 0)
(-0.037765048 7.5517132e-06 0)
(-0.037978062 6.6968225e-06 0)
(-0.038164703 5.8386569e-06 0)
(-0.038325163 4.9913105e-06 0)
(-0.03845965 4.178347e-06 0)
(0.091667547 -0.00072012421 2.7686054e-21)
(0.076476313 -0.0022268368 2.4513342e-20)
(0.080187026 -0.0051137838 3.2785018e-20)
(0.054974373 -0.0058495743 1.0451798e-24)
(0.036446657 -0.0057980189 9.5779982e-20)
(0.0040562619 -0.00031906169 -7.9998103e-23)
(-0.014710063 0.005317234 -8.7959224e-23)
(-0.024759957 0.010600302 0)
(-0.021320309 0.010733664 -1.2157669e-18)
(-0.018140802 0.010409689 6.1630117e-19)
(-0.013831249 0.0087746993 6.1262302e-19)
(-0.011517758 0.0079321213 2.929437e-25)
(-0.0098545638 0.0072296799 -2.9012268e-25)
(-0.0089436305 0.0068895108 0)
(-0.0081187217 0.0064933358 0)
(-0.0076280388 0.0062774135 0)
(-0.0071069307 0.0059673715 -6.2222471e-19)
(-0.0066936417 0.0056940366 1.19763e-24)
(-0.0062648202 0.0053623199 -2.4341773e-24)
(-0.005902949 0.005051971 -6.4686965e-19)
(-0.0055781614 0.0047433327 -6.5778487e-19)
(-0.0053560033 0.0045046155 5.1053626e-24)
(-0.005214269 0.0043363315 5.1983948e-24)
(-0.0051297052 0.0042210889 -1.0561799e-23)
(-0.0051096938 0.00416364 5.3614916e-24)
(-0.0051500229 0.0041587923 5.4391317e-24)
(-0.0052525872 0.0042070447 -1.4454559e-18)
(-0.0054230168 0.0043116774 -5.5864048e-24)
(-0.005658047 0.0044692827 1.4821448e-18)
(-0.0059639355 0.0046841515 0)
(-0.0063342869 0.004950868 1.1565331e-23)
(-0.0067686644 0.0052690179 -7.6630721e-19)
(-0.0072540755 0.0056284691 0)
(-0.007769956 0.0060132691 1.335969e-23)
(-0.0082725337 0.0063822721 -2.4123703e-23)
(-0.0087617951 0.0067201395 1.2198296e-23)
(-0.009247979 0.0070294319 -8.0977711e-19)
(-0.00972149 0.0072990245 1.3246717e-26)
(-0.010181864 0.0075249993 -1.2707488e-23)
(-0.010617753 0.0076955097 8.4662699e-19)
(-0.01102203 0.0078025292 2.629856e-23)
(-0.011382271 0.0078351446 -3.8545119e-23)
(-0.011692578 0.0077880489 2.7265965e-23)
(-0.011940679 0.0076530786 9.1000471e-19)
(-0.012131503 0.0074345487 1.8559396e-18)
(-0.012261665 0.0071331456 0)
(-0.012387079 0.006788454 2.949222e-23)
(-0.012507085 0.0064187952 2.5567667e-26)
(-0.012586752 0.0060125495 -1.0027408e-18)
(-0.012608251 0.0055667513 3.1118656e-23)
(-0.012574725 0.0050886858 5.1801093e-19)
(-0.012450198 0.0045720056 -3.2316017e-23)
(-0.012276432 0.0040405157 3.2496851e-23)
(-0.011977874 0.0034795569 5.3807463e-19)
(-0.011676445 0.0029340942 -3.3093208e-23)
(-0.011218159 0.0023754688 9.5041819e-26)
(-0.010910744 0.0018744857 2.7430921e-19)
(-0.010431379 0.0013781279 2.748788e-19)
(-0.010528332 0.00097293047 0)
(-0.010530571 0.00057771467 -3.3200788e-23)
(-0.012510636 0.00025777127 3.3170596e-23)
(-0.016077405 0.00012484856 -3.2746625e-23)
(-0.018674475 0.0001033982 3.2744236e-23)
(-0.02116028 9.2723984e-05 0)
(-0.023251288 8.2800526e-05 0)
(-0.02522586 7.5107566e-05 0)
(-0.026949295 6.8019615e-05 0)
(-0.028564175 6.230855e-05 -3.2355813e-23)
(-0.030012489 5.7172878e-05 -2.6508562e-26)
(-0.031369276 5.2901717e-05 3.2378654e-23)
(-0.032610413 4.908154e-05 -1.6246535e-23)
(-0.033776503 4.5819983e-05 1.6245734e-23)
(-0.034858112 4.2871448e-05 0)
(-0.035877779 4.0290859e-05 1.6400538e-23)
(-0.03683231 3.7921564e-05 -1.6399846e-23)
(-0.03773449 3.578385e-05 -1.6544712e-23)
(-0.038583646 3.3795548e-05 3.3172422e-23)
(-0.039387142 3.1954284e-05 -3.3347129e-23)
(-0.040145186 3.0210672e-05 3.3536416e-23)
(-0.040862118 2.8550477e-05 -1.6817049e-23)
(-0.041538332 2.6980056e-05 -1.7034866e-23)
(-0.042176342 2.5443789e-05 3.4187946e-23)
(-0.042776608 2.3952583e-05 -1.7153105e-23)
(-0.043340578 2.2496151e-05 1.7410411e-23)
(-0.043868607 2.1068155e-05 -1.7409983e-23)
(-0.044361485 1.9657171e-05 -1.769214e-23)
(-0.044819569 1.8249161e-05 3.5533744e-23)
(-0.045243224 1.6888225e-05 -3.5839236e-23)
(-0.045632702 1.5509725e-05 3.6156151e-23)
(-0.045988356 1.4147753e-05 -1.8158571e-23)
(-0.046310445 1.279906e-05 -1.8497656e-23)
(-0.046599374 1.1464944e-05 3.7172265e-23)
(-0.04685537 1.0147144e-05 -1.8674637e-23)
(-0.04707891 8.828184e-06 1.9044021e-23)
(-0.047270231 7.5258642e-06 -1.904386e-23)
(-0.047429608 6.266372e-06 0)
(0.10954776 -0.00089536311 -2.8557007e-21)
(0.092695792 -0.0026686585 -5.0570197e-20)
(0.096342191 -0.0060739527 -3.3827344e-20)
(0.067325314 -0.007041728 -3.1869951e-25)
(0.045114134 -0.0070352411 -1.9757777e-19)
(0.0068528006 -0.00070845281 -5.1200108e-19)
(-0.016241706 0.0060163253 -2.8371788e-19)
(-0.028894069 0.012401551 1.2079595e-24)
(-0.025252427 0.012689761 6.2750713e-19)
(-0.02157473 0.012349891 -1.2724385e-18)
(-0.016517717 0.010451559 -5.7690485e-23)
(-0.013765555 0.0094624068 0)
(-0.011788005 0.0086360657 0)
(-0.010698191 0.0082323962 0)
(-0.0097167027 0.0077645242 0)
(-0.0091289204 0.0075069394 0)
(-0.0085090911 0.0071394462 6.4250373e-19)
(-0.0080161372 0.0068141731 -4.9552146e-24)
(-0.0075065272 0.0064205435 2.5063271e-24)
(-0.007076085 0.0060518937 1.3359005e-18)
(-0.0066906003 0.005685908 6.7922986e-19)
(-0.0064267918 0.0054027492 -6.9145003e-19)
(-0.0062591336 0.0052035453 0)
(-0.0061601246 0.0050679023 0)
(-0.0061381844 0.0050012645 7.2572767e-19)
(-0.0061884456 0.0049975407 5.6163641e-24)
(-0.006313062 0.005057293 1.4925535e-18)
(-0.0065186325 0.005184317 -2.3068357e-23)
(-0.006801304 0.0053745904 -7.6518176e-19)
(-0.0071682725 0.0056330081 -1.1816067e-23)
(-0.0076119304 0.0059531 0)
(-0.0081314531 0.0063341061 1.582473e-18)
(-0.0087113089 0.0067638134 -2.8310746e-27)
(-0.0093270032 0.0072230565 -1.6152699e-18)
(-0.0099271248 0.0076634151 0)
(-0.010511341 0.0080665309 0)
(-0.011091555 0.0084351574 8.3609613e-19)
(-0.011656647 0.0087562154 0)
(-0.012205942 0.0090249272 8.603425e-19)
(-0.012726218 0.0092273521 -8.7411428e-19)
(-0.01320902 0.0093539321 0)
(-0.013639822 0.0093918393 -1.8093734e-18)
(-0.0140117 0.0093347822 0)
(-0.014310541 0.0091733577 0)
(-0.014542225 0.0089126542 -9.5807475e-19)
(-0.014703365 0.00855399 5.9653732e-23)
(-0.014858783 0.0081433825 -3.0414234e-23)
(-0.015007894 0.007702405 1.0164233e-18)
(-0.015110078 0.0072176198 1.0351672e-18)
(-0.015144321 0.0066856502 -3.2125502e-23)
(-0.015113919 0.0061147646 -5.347675e-19)
(-0.014977669 0.00549807 -5.425273e-19)
(-0.014783347 0.0048628089 -2.972539e-26)
(-0.01444501 0.0041929636 -3.391972e-23)
(-0.014102458 0.0035398579 5.6028822e-19)
(-0.01358153 0.0028722018 0)
(-0.013235732 0.0022703991 0)
(-0.012702152 0.001676599 -2.8376018e-19)
(-0.012841846 0.0011877549 0)
(-0.012908364 0.00071724908 -3.4271326e-23)
(-0.015283517 0.00033885865 3.4235622e-23)
(-0.019489693 0.00017900013 -3.3266587e-23)
(-0.022581291 0.0001484003 3.3793206e-23)
(-0.025526306 0.00013307015 0)
(-0.028009807 0.00011874934 0)
(-0.030348113 0.00010771611 0)
(-0.032392382 9.7513582e-05 3.3386382e-23)
(-0.034304427 8.9325727e-05 -3.3383677e-23)
(-0.036020943 8.1942655e-05 3.3413851e-23)
(-0.037627153 7.5817841e-05 -3.3411433e-23)
(-0.039097204 7.0329434e-05 0)
(-0.040477297 6.5647185e-05 0)
(-0.041757632 6.1412488e-05 0)
(-0.04296392 5.7703612e-05 0)
(-0.04409308 5.4299262e-05 0)
(-0.045159737 5.1226709e-05 0)
(-0.046163455 4.8367293e-05 0)
(-0.047112681 4.5718656e-05 0)
(-0.048007857 4.3209872e-05 0)
(-0.048853974 4.0823538e-05 0)
(-0.049651604 3.8557257e-05 0)
(-0.050403656 3.6347776e-05 0)
(-0.051110729 3.4201113e-05 0)
(-0.051774504 3.2104682e-05 0)
(-0.052395437 3.0048173e-05 0)
(-0.052974459 2.8017516e-05 0)
(-0.053512008 2.599513e-05 1.8406942e-23)
(-0.054008526 2.4029581e-05 -3.6973732e-23)
(-0.054464331 2.204883e-05 3.730035e-23)
(-0.05487985 2.0090201e-05 -1.8733061e-23)
(-0.055255409 1.8150822e-05 1.9082721e-23)
(-0.055591492 1.6232292e-05 -3.834771e-23)
(-0.05588839 1.4336963e-05 3.8718212e-23)
(-0.056146678 1.2443842e-05 -1.9452869e-23)
(-0.056366638 1.0574611e-05 1.984352e-23)
(-0.056548619 8.7573096e-06 -3.9888958e-23)
(0.12786492 -0.0010830497 2.9431217e-21)
(0.10968601 -0.0031235492 5.2135804e-20)
(0.11304293 -0.007044337 3.4872736e-20)
(0.080481119 -0.0082780707 7.8259781e-25)
(0.054508575 -0.0083368519 1.018517e-19)
(0.010409938 -0.0012188653 2.6400201e-19)
(-0.017313702 0.0066105328 -2.9258938e-19)
(-0.032862819 0.014149395 3.213648e-19)
(-0.029182743 0.014639209 6.4756959e-19)
(-0.025042666 0.014299471 1.3134182e-18)
(-0.01925563 0.012151374 -6.5293384e-19)
(-0.016061003 0.011019019 0)
(-0.013766219 0.010070848 -6.5043816e-19)
(-0.012493509 0.009603452 -3.8710325e-26)
(-0.01135366 0.0090643376 6.5361346e-19)
(-0.010666308 0.0087644245 6.5798311e-19)
(-0.0099466704 0.0083393225 6.6339324e-19)
(-0.0093727211 0.0079615167 -2.5537733e-24)
(-0.0087816068 0.0075056436 -6.7944176e-19)
(-0.0082818682 0.0070782588 -1.4681486e-23)
(-0.0078353481 0.0066547231 0)
(-0.0075296342 0.0063269499 7.1398256e-19)
(-0.0073361301 0.0060968594 0)
(-0.0072231098 0.0059411304 -5.6318783e-24)
(-0.0071999153 0.0058658338 -1.4987515e-18)
(-0.0072610644 0.0058639996 5.7999763e-24)
(-0.0074089397 0.0059362431 2.2112618e-24)
(-0.0076510821 0.0060868416 1.1907186e-23)
(-0.007983054 0.0063111619 -6.4919557e-27)
(-0.0084129123 0.0066146351 -2.4394477e-23)
(-0.0089318202 0.0069897122 1.2337012e-23)
(-0.0095384537 0.0074351883 -7.8636858e-24)
(-0.010214683 0.0079366895 1.2597977e-23)
(-0.010932023 0.008471737 8.3386922e-19)
(-0.011631571 0.0089847367 1.285676e-23)
(-0.012312576 0.0094542415 1.3011147e-23)
(-0.012988524 0.0098830999 -1.7820541e-23)
(-0.013646853 0.010256309 8.752142e-19)
(-0.014286637 0.010568183 -8.8829243e-19)
(-0.014892853 0.010802718 0)
(-0.015455726 0.01094881 0)
(-0.015958685 0.010991748 1.8680072e-18)
(-0.016393812 0.010924257 2.9061863e-23)
(-0.016745298 0.010735787 -2.9573807e-23)
(-0.017020001 0.010432198 -9.8904544e-19)
(-0.01721475 0.010015604 -3.0812722e-23)
(-0.017402809 0.009538163 3.1397988e-23)
(-0.017583716 0.0090246621 -1.0492961e-18)
(-0.017711418 0.008459954 0)
(-0.017761759 0.0078402942 0)
(-0.017738051 0.007174818 -3.3691184e-23)
(-0.017594337 0.0064562882 -5.6004152e-19)