/*--------------------------------*- C++ -*----------------------------------*\
| =========                 |                                                 |
| \\      /  F ield         | OpenFOAM: The Open Source CFD Toolbox           |
|  \\    /   O peration     | Version:  2.4.0                                 |
|   \\  /    A nd           | Web:      www.OpenFOAM.org                      |
|    \\/     M anipulation  |                                                 |
\*---------------------------------------------------------------------------*/
FoamFile
{
    version     2.0;
    format      ascii;
    class       volScalarField;
    location    "80";
    object      omega;
}
// * * * * * * * * * * * * * * * * * * * * * * * * * * * * * * * * * * * * * //

dimensions      [0 0 -1 0 0 0 0];

internalField   nonuniform List<scalar> 
78300
(
288636.63
288686.54
288700.32
288833.65
289515.6
291432.02
295479.08
302673.01
314010.37
329813.04
346787.82
362441.63
375829.98
386411.76
393919.79
398343.7
399991.89
399060.36
395721.33
390174.45
382632.29
373308
362413.46
350675.33
339521.98
329123.31
319421.78
310364.21
301901.89
293992.53
286594.56
279672.29
273192.3
267123.9
261439.18
256109.32
250877.53
245350.68
239525.68
233441.11
227134.93
220644.17
214005.21
207254.37
200428.97
193566.99
186709.47
179903.22
173262.16
167044.3
161298.04
156019.07
151204.62
146855.25
142973.85
139564.67
136634.53
134192.24
132247.52
130811.23
129895.27
129511.99
129657.27
129783.85
129783.85
129783.85
129783.85
129783.85
129783.85
129783.85
129783.85
129783.85
129783.85
129783.85
129783.85
129783.85
129783.85
129783.85
129783.85
129783.85
129783.85
129783.85
129783.85
129783.85
129783.85
129783.85
129783.85
129783.85
129783.85
129783.85
129783.85
129783.85
129783.85
129783.85
129783.85
129783.85
129783.85
129783.85
129783.85
129783.85
129783.85
129783.85
129783.85
129783.85
129783.85
129783.85
129783.85
129783.85
129783.85
129783.85
129783.85
129783.85
129783.85
129783.85
129783.85
129783.85
129783.85
129783.85
129783.85
129783.85
129783.85
129783.85
129783.84
129783.85
129783.85
129783.85
129783.85
129783.84
129783.85
129783.85
129783.85
129783.85
129783.85
129783.85
129783.85
129783.85
129783.84
129783.85
129783.85
129783.84
129783.85
129783.85
129783.85
129783.85
129783.85
129783.84
129783.85
129783.85
129783.85
129783.85
129783.85
129783.85
129783.85
129783.85
129783.84
129783.85
129783.85
129783.85
129783.84
129783.85
129783.85
129783.84
129783.85
129783.85
129783.84
129783.85
129783.85
129783.84
129783.85
129783.85
129783.85
129783.85
129783.85
129783.85
129783.85
129783.84
129783.85
129783.85
129783.85
129783.85
129783.85
129783.85
129783.85
129783.85
129783.85
129783.85
129783.85
129783.85
129783.85
129783.85
129783.85
129783.85
129783.85
129783.85
129783.84
129783.85
129783.85
129783.84
129783.85
129783.85
129783.85
129783.85
129783.85
129783.84
129783.85
129783.85
129783.84
129657.28
129512.01
129895.29
130811.3
132247.51
134192.34
136634.64
139564.65
142973.98
146855.32
151204.67
156018.82
161297.58
167043.87
173262.26
179902.7
186708.68
193567.05
200429.57
207253.32
214004.05
220644.49
227134.65
233439.26
239524.1
245352.66
250877.67
256108.08
261440.19
267124.37
273191.43
279670.54
286594.56
293991.4
301901.42
310366.51
319421.34
329122.77
339524.25
350675.48
362412.53
373310.22
382630.09
390168.82
395719.59
399058.71
399989.89
398342.36
393921.49
386411.4
375828.68
362441.02
346789.97
329814.86
314010.09
302672.88
295478.99
291431.81
289515.62
288834.57
288701.21
288686.52
288636.62
40680.128
48837.323
40679.406
48856.288
56335.211
49319.842
49992.491
51206.647
53120.504
53539.118
56294.754
58837.506
61013.104
62733.491
63954.987
64675.629
64945.506
64796.423
64256.396
63357.779
62135.097
60622.941
58855.454
56949.918
55138.533
53449.618
51873.941
50402.863
49028.502
47743.932
46542.436
45418.123
44365.633
43379.941
42456.55
41590.924
40741.655
39844.72
38899.408
37912.019
36888.713
35835.553
34758.56
33663.841
32557.94
31448.471
30328.988
25651.72
33289.198
32056.356
23076.192
29868.845
25591.635
24854.867
24197.835
23620.726
23124.717
22711.285
22382.081
22138.963
21983.943
21919.103
21942.61
21962.334
21963.958
24583.159
24650.315
24682.537
24692.08
24699.258
24702.278
24704.704
24696.632
18700.366
24706.55
24708.496
24708.676
24708.786
24708.716
24708.583
24708.32
24707.992
24707.551
24707.028
24706.372
24705.42
24692.313
18696.542
18696.689
18698.011
18699.585
18701.33
18703.347
18705.637
18708.282
18711.336
18714.909
18719.153
18724.646
18745.865
24669.355
24663.341
24655.247
24644.233
24629.645
24607.292
24563.788
24352.223
21962.194
21961.609
21961.607
21961.606
21961.605
21961.603
21961.602
21961.6
21961.599
21961.598
21961.596
21961.595
21961.593
21961.591
21961.59
21961.589
21961.587
21961.586
21961.585
21961.583
21961.582
21961.58
21961.579
21961.578
21961.577
21961.576
21961.574
21961.573
21961.572
21961.571
21961.57
21961.569
21961.568
21961.567
21961.566
21961.565
21961.564
21961.563
21961.563
21961.562
21961.561
21961.56
21961.56
21961.559
21961.559
21961.558
21961.557
21961.557
21961.556
21961.556
21961.555
21961.555
21961.555
21961.554
21961.554
21961.554
21961.553
21961.554
21961.553
21961.553
21961.553
21961.553
21961.553
21961.553
21961.553
21961.553
21961.553
21961.552
21961.553
21961.553
21961.553
21961.553
21961.553
21961.554
21961.553
21961.554
21961.554
21961.554
21961.554
21961.555
21961.555
21961.555
21961.556
21961.556
21961.557
21961.557
21961.557
21961.559
21961.559
21961.56
21961.561
21961.562
21961.563
21961.565
21961.566
21961.568
21961.572
21961.577
21962.08
21942.391
21919.053
21983.958
22138.99
22382.1
22711.309
23124.743
23620.736
24197.885
24854.902
25591.134
26406.056
27299.592
28272.252
29324.775
30448.545
31600.089
32760.34
33921.299
35075.784
36217.757
37341.022
38438.832
39505.255
40534.394
41519.976
42454.406
43339.369
44241.768
45203.791
46230.696
47327.564
48499.551
49751.423
51090.172
52522.856
54055.445
55697.499
57458.11
59345.284
61329.883
73072.538
53599.716
76410.432
55393.455
78178.477
55980.48
78012.059
77209.419
62763.979
61014.628
58838.891
56296.885
53541.217
50978.805
49143.107
47982.382
47360.208
40790.492
56177.549
40720.905
40671.456
48832.009
11131.034
16130.422
11127.81
16135.006
22654.778
16319.505
16530.367
16930.897
17562.844
17956.484
18879.583
19732.876
20463.2
21041.02
21451.49
21693.934
21785.108
21735.724
21555.167
21254.275
20844.637
20337.869
19745.334
19106.208
18498.447
17931.745
17403.028
16909.414
16448.251
16017.214
15614.059
15236.813
14883.663
14552.928
14243.096
13952.691
13667.849
13367.061
13050.051
12718.91
12375.7
12022.437
11661.136
11293.826
10922.636
10549.94
10156.411
7304.4437
12886.777
12327.865
6629.2861
11444.061
8457.9052
8219.82
8002.4994
7811.5995
7647.5265
7510.7718
7401.8791
7321.4765
7270.2213
7248.8306
7256.4255
7262.5329
7264.7662
9227.5776
9277.7076
9301.4365
9308.5103
9313.8426
9316.0874
9317.8701
9306.2197
5482.4076
9316.7982
9320.7052
9320.8372
9320.9159
9320.8596
9320.7571
9320.5566
9320.3078
9319.974
9319.5793
9319.0841
9318.3319
9300.3408
5475.9842
5474.5725
5475.2091
5475.9663
5476.8048
5477.7727
5478.87
5480.1357
5481.5943
5483.2988
5485.321
5487.9721
5504.8897
9289.6857
9287.0552
9281.0803
9272.9774
9262.278
9245.9488
9214.2844
9059.3683
7263.0595
7262.0398
7262.0362
7262.0328
7262.0296
7262.0264
7262.023
7262.0196
7262.0161
7262.0127
7262.0091
7262.0056
7262.0019
7261.9983
7261.9946
7261.9912
7261.9875
7261.984
7261.9804
7261.9768
7261.9734
7261.9699
7261.9665
7261.9631
7261.9597
7261.9565
7261.9533
7261.9502
7261.9469
7261.9439
7261.941
7261.938
7261.9352
7261.9324
7261.9297
7261.9271
7261.9247
7261.9221
7261.9199
7261.9176
7261.9154
7261.9133
7261.9114
7261.9094
7261.9076
7261.9059
7261.9041
7261.9027
7261.9011
7261.8997
7261.8983
7261.8971
7261.8958
7261.8947
7261.8937
7261.8927
7261.8918
7261.8911
7261.8905
7261.8896
7261.8891
7261.8885
7261.8879
7261.8874
7261.8872
7261.8868
7261.8866
7261.8863
7261.8864
7261.8862
7261.8862
7261.8862
7261.8863
7261.8865
7261.8865
7261.8868
7261.887
7261.8874
7261.8877
7261.8882
7261.8887
7261.8893
7261.89
7261.8908
7261.8916
7261.8927
7261.8937
7261.8951
7261.8964
7261.898
7261.8999
7261.9021
7261.9044
7261.9072
7261.9102
7261.914
7261.9186
7261.9242
7262.2216
7256.1586
7248.7581
7270.2333
7321.5055
7401.9181
7510.8087
7647.5585
7811.619
8002.5261
8219.8493
8463.3729
8732.918
9028.4661
9350.1776
9698.2949
10069.922
10450.68
10834.29
11218.112
11599.801
11977.345
12348.684
12711.599
13064.124
13404.297
13730.074
14038.965
14331.544
14629.977
14948.176
15287.81
15650.595
16038.231
16452.286
16895.075
17368.918
17875.842
18418.903
19001.217
19625.118
20249.719
29974.798
14370.002
31353.198
14816.693
32119.792
14966.878
31948.115
31838.81
21117.525
20465.212
19734.457
18881.907
17958.588
17100.701
16486.204
16096.817
15902.402
11157.259
22545.345
11162.914
11115.844
16131.769
4199.479
7417.204
4197.1874
7418.6676
12617.06
7535.618
7621.2454
7805.2203
8095.2965
8338.945
8766.8884
9163.2616
9502.6205
9771.3171
9962.2581
10075.152
10117.753
10095.075
10011.449
9871.9362
9681.9011
9446.7436
9171.722
8874.9394
8592.624
8329.368
8083.7534
7854.4476
7640.215
7439.9786
7252.6941
7077.4474
6913.3938
6759.7547
6615.8245
6480.9273
6348.6511
6208.9955
6061.8067
5908.0488
5748.6765
5584.6255
5416.8308
5246.2255
5073.7834
4900.5116
4704.4342
2952.9937
6780.8775
6418.7352
2716.2885
5934.4602
3894.4234
3789.4703
3689.2721
3601.2511
3525.5982
3462.5463
3412.3418
3375.2892
3351.6827
3341.8934
3345.4193
3348.0779
3350.6152
4667.3371
4701.5654
4717.4512
4722.1973
4725.7781
4727.2818
4728.451
4715.2988
2316.3382
4726.0647
4730.3658
4730.4527
4730.5026
4730.4614
4730.3894
4730.2512
4730.0805
4729.8522
4729.5829
4729.2451
4728.6894
4709.0244
2309.3702
2307.7035
2308.0417
2308.4438
2308.8882
2309.4005
2309.9804
2310.6485
2311.4175
2312.315
2313.3794
2314.8019
2329.0118
4708.138
4707.6091
4703.5914
4698.1563
4690.9912
4680.0751
4658.8808
4552.8951
3348.7691
3347.7147
3347.7084
3347.7026
3347.6968
3347.6909
3347.6848
3347.6785
3347.6722
3347.6657
3347.6591
3347.6525
3347.6457
3347.6389
3347.632
3347.6253
3347.6184
3347.6116
3347.6047
3347.5979
3347.5911
3347.5844
3347.5777
3347.5711
3347.5645
3347.5581
3347.5517
3347.5454
3347.5392
3347.5331
3347.5273
3347.5214
3347.5157
3347.5101
3347.5048
3347.4995
3347.4944
3347.4894
3347.4846
3347.48
3347.4755
3347.4712
3347.467
3347.463
3347.4592
3347.4556
3347.452
3347.4487
3347.4454
3347.4424
3347.4394
3347.4367
3347.434
3347.4315
3347.4292
3347.4271
3347.425
3347.4232
3347.4215
3347.4198
3347.4183
3347.4169
3347.4155
3347.4144
3347.4134
3347.4125
3347.4117
3347.411
3347.4105
3347.4101
3347.4097
3347.4094
3347.4092
3347.4092
3347.4091
3347.4093
3347.4094
3347.4098
3347.4101
3347.4107
3347.4114
3347.4122
3347.4131
3347.4142
3347.4154
3347.4169
3347.4185
3347.4204
3347.4225
3347.4249
3347.4277
3347.431
3347.4345
3347.4388
3347.4434
3347.449
3347.4555
3347.4626
3347.6586
3345.0625
3341.7856
3351.688
3375.3199
3412.3911
3462.5914
3525.6373
3601.2768
3689.2904
3789.4827
3901.7538
4026.0224
4162.278
4310.5915
4471.0726
4642.362
4817.8408
4994.6234
5171.4947
5347.3872
5521.3605
5692.469
5859.6973
6022.1419
6178.885
6328.9863
6471.3099
6606.1531
6743.7401
6890.4576
7047.0607
7214.3229
7393.0381
7583.9306
7788.0824
8006.5431
8240.2635
8490.6259
8759.082
9046.5401
9301.5572
17223.695
5221.7028
18005.95
5362.8012
18475.418
5416.172
18267.412
18457.656
9878.3642
9506.3654
9166.3686
8771.17
8343.8782
7947.1107
7662.6713
7481.5745
7403.7606
4208.755
12503.941
4228.7741
4184.4166
7420.4247
2009.1253
4098.99
2008.4781
4099.8368
8094.7894
4193.5509
4230.15
4331.6134
4491.3122
4646.3629
4884.0876
5104.9532
5294.1246
5444.0862
5550.6688
5613.7565
5637.6377
5625.152
5578.6815
5501.0745
5395.3045
5264.3853
5111.2461
4945.9141
4788.583
4641.8666
4504.9808
4377.1854
4257.7898
4146.1963
4041.8205
3944.1542
3852.7259
3767.1027
3686.8884
3611.711
3538.0136
3460.2214
3378.2297
3292.5731
3203.7871
3112.3887
3018.8987
2923.8337
2827.7323
2731.0672
2613.1048
1531.4082
4088.7445
3825.1183
1427.8207
3524.254
2157.5614
2102.5073
2046.9008
1998.0552
1956.0716
1921.0868
1893.2321
1872.6928
1859.6226
1854.272
1856.3246
1857.7335
1860.2813
2707.769
2730.3661
2740.619
2743.6806
2745.9914
2746.9572
2747.6825
2734.8917
1254.285
2745.0781
2748.9341
2748.9904
2749.0217
2748.9938
2748.9464
2748.8559
2748.7444
2748.5955
2748.4197
2748.1989
2747.7887
2729.0543
1247.682
1246.1974
1246.3849
1246.6074
1246.8526
1247.1344
1247.4526
1247.8183
1248.2385
1248.7284
1249.3088
1250.1086
1262.0123
2733.6683
2734.1118
2731.5016
2727.9787
2723.3383
2716.2722
2702.4862
2631.3415
1858.4024
1857.4848
1857.4752
1857.4661
1857.4569
1857.4474
1857.4377
1857.4277
1857.4175
1857.4071
1857.3964
1857.3856
1857.3746
1857.3636
1857.3524
1857.3413
1857.33
1857.3188
1857.3075
1857.2963
1857.2852
1857.274
1857.263
1857.252
1857.2412
1857.2305
1857.2199
1857.2094
1857.1991
1857.189
1857.1791
1857.1693
1857.1598
1857.1505
1857.1414
1857.1325
1857.1239
1857.1156
1857.1074
1857.0996
1857.092
1857.0847
1857.0775
1857.0707
1857.0641
1857.0579
1857.0518
1857.046
1857.0405
1857.0352
1857.0301
1857.0253
1857.0207
1857.0163
1857.0122
1857.0084
1857.0048
1857.0015
1856.9984
1856.9954
1856.9926
1856.99
1856.9877
1856.9855
1856.9836
1856.9818
1856.9803
1856.979
1856.9778
1856.9768
1856.9759
1856.9752
1856.9747
1856.9743
1856.974
1856.9739
1856.974
1856.9743
1856.9746
1856.9752
1856.976
1856.977
1856.9782
1856.9796
1856.9813
1856.9832
1856.9854
1856.9879
1856.9908
1856.9941
1856.998
1857.0024
1857.0074
1857.0132
1857.0197
1857.0273
1857.0358
1857.0449
1857.1886
1855.863
1854.1179
1859.6123
1872.7176
1893.2818
1921.1314
1956.109
1998.0734
2046.9038
2102.4909
2164.7776
2233.721
2309.3131
2391.5931
2480.6199
2575.6288
2672.9478
2770.9836
2869.0655
2966.6055
3063.0771
3157.9594
3250.6911
3340.7706
3427.6909
3510.9259
3589.8564
3664.6628
3741.0142
3822.4416
3909.349
4002.1708
4101.343
4207.2665
4320.5577
4441.7838
4571.4796
4710.4018
4859.367
5018.8109
5134.2937
11449.444
2380.5898
11952.89
2432.8643
12282.68
2458.3107
12050.818
12401.998
5568.4961
5300.1269
5110.2702
4891.1379
4654.868
4435.5426
4277.8758
4176.5136
4142.757
2014.9993
7972.4818
2038.5278
1995.845
4103.2
1176.4469
2538.6546
1176.7871
2538.581
5527.5091
2621.5305
2634.1583
2696.6405
2794.7672
2898.6483
3046.206
3183.9533
3301.995
3395.7477
3462.3751
3501.8641
3516.8565
3509.172
3480.2605
3431.9327
3366.0234
3284.4218
3188.9624
3085.8543
2987.6957
2896.1557
2810.7485
2731.0141
2656.5208
2586.8962
2521.7752
2460.8414
2403.7993
2350.3792
2300.3319
2253.4285
2207.4594
2158.9462
2107.8128
2054.3904
1999.0144
1942.0045
1883.6868
1824.3817
1764.4225
1704.0269
1625.2928
957.00827
2633.8336
2437.1596
900.1569
2239.8837
1340.5756
1308.095
1273.4832
1243.0859
1216.9575
1195.1913
1177.863
1165.1052
1157.0041
1153.7623
1155.1704
1156.0252
1158.3789
1689.7071
1704.2868
1710.7492
1712.6748
1714.1295
1714.7342
1715.164
1703.9137
805.24978
1712.8842
1715.978
1716.0164
1716.0381
1716.0223
1715.9943
1715.9389
1715.8703
1715.7776
1715.6678
1715.5286
1715.2219
1698.9823
799.4641
798.28443
798.39151
798.51776
798.65595
798.81365
798.99083
799.19357
799.42572
799.69551
800.01468
800.47604
810.24995
1705.8127
1706.5676
1704.9074
1702.672
1699.729
1695.2468
1686.4322
1639.2337
1156.6255
1155.897
1155.8834
1155.8702
1155.8568
1155.8429
1155.8286
1155.8139
1155.7989
1155.7835
1155.7677
1155.7518
1155.7356
1155.7193
1155.7028
1155.6863
1155.6696
1155.6529
1155.6362
1155.6195
1155.6029
1155.5864
1155.5699
1155.5536
1155.5374
1155.5215
1155.5057
1155.4901
1155.4747
1155.4596
1155.4448
1155.4302
1155.4159
1155.402
1155.3884
1155.3751
1155.3622
1155.3496
1155.3374
1155.3256
1155.3142
1155.3031
1155.2924
1155.2821
1155.2722
1155.2627
1155.2535
1155.2448
1155.2363
1155.2283
1155.2206
1155.2133
1155.2063
1155.1996
1155.1934
1155.1876
1155.1821
1155.1769
1155.1721
1155.1675
1155.1632
1155.1592
1155.1555
1155.1521
1155.1491
1155.1463
1155.1438
1155.1417
1155.1398
1155.1381
1155.1366
1155.1354
1155.1344
1155.1337
1155.133
1155.1328
1155.1327
1155.1329
1155.1332
1155.1339
1155.1348
1155.136
1155.1375
1155.1393
1155.1415
1155.1439
1155.1468
1155.15
1155.1539
1155.1582
1155.1633
1155.169
1155.1756
1155.183
1155.1915
1155.2013
1155.2121
1155.2234
1155.3373
1154.5891
1153.548
1156.9655
1165.1126
1177.9015
1195.2237
1216.9804
1243.0843
1273.4597
1308.0383
1346.7838
1389.6702
1436.6916
1487.8719
1543.2465
1602.3331
1662.8471
1723.8038
1784.7875
1845.4344
1905.4168
1964.4118
2022.0709
2078.0817
2132.1302
2183.8902
2232.9831
2279.5358
2327.0646
2377.7506
2431.8451
2489.6214
2551.3457
2617.2703
2687.7834
2763.2272
2843.9461
2930.4063
3023.1175
3122.3681
3176.2803
8095.5309
1333.4349
8434.1664
1356.7144
8676.7461
1373.2256
8440.5768
8867.9376
3528.0739
3310.4098
3191.9423
3056.5288
2911.1347
2776.1702
2678.6234
2614.871
2600.6542
1182.6624
5403.7971
1205.6897
1165.4028
2542.922
811.09929
1698.3547
811.93515
1697.1885
3885.5055
1773.6189
1772.3285
1813.5831
1878.2501
1950.9205
2049.4589
2142.092
2221.5299
2284.7962
2329.7413
2356.4221
2366.5787
2361.4852
2342.0804
2309.6191
2265.3153
2210.4487
2146.2652
2076.9049
2010.8452
1949.2376
1891.7566
1838.0947
1787.9605
1741.1042
1697.279
1656.273
1617.886
1581.9369
1548.2562
1516.6904
1485.7594
1453.1245
1418.7258
1382.7844
1345.5275
1307.1674
1267.9251
1228.0146
1187.6588
1146.9427
1091.3255
680.90591
1761.7099
1615.7558
641.9552
1482.8795
899.72157
878.72013
855.45438
835.02839
817.46964
802.84899
791.21172
782.6644
777.25604
775.1707
776.26801
776.84653
778.89449
1105.7175
1114.9684
1118.9778
1120.1697
1121.0725
1121.447
1121.6919
1112.4881
576.33104
1119.9208
1122.2355
1122.2657
1122.2847
1122.28
1122.268
1122.2384
1122.2006
1122.1472
1122.0829
1121.9991
1121.7668
1108.628
571.58219
570.71144
570.77425
570.84718
570.92582
571.01429
571.11259
571.22398
571.35056
571.49678
571.66907
571.93707
579.71092
1115.6442
1116.3882
1115.3452
1113.9452
1112.1031
1109.2959
1103.715
1072.6409
777.39225
776.84581
776.82743
776.80927
776.79076
776.77161
776.75191
776.73163
776.71082
776.68954
776.66784
776.64583
776.62349
776.60093
776.57813
776.55524
776.53223
776.50918
776.48606
776.46302
776.44003
776.41715
776.3944
776.37183
776.34948
776.32737
776.30555
776.28395
776.2627
776.24177
776.22129
776.20111
776.18138
776.16206
776.14324
776.12487
776.10698
776.08957
776.07266
776.05629
776.04041
776.02509
776.01023
775.99594
775.98216
775.96896
775.95625
775.94406
775.93233
775.92113
775.91045
775.90025
775.89054
775.88126
775.87264
775.86449
775.85679
775.84957
775.84282
775.83644
775.83045
775.82483
775.81967
775.81495
775.81063
775.80675
775.80324
775.80019
775.79744
775.79506
775.7929
775.79118
775.78972
775.78862
775.7877
775.7872
775.787
775.78713
775.78755
775.78829
775.78949
775.79094
775.79287
775.79506
775.79786
775.80091
775.80468
775.80873
775.81371
775.81905
775.82559
775.8326
775.841
775.85015
775.86089
775.87293
775.88638
775.90021
775.99597
775.54926
774.87901
777.17314
782.63916
791.22417
802.85461
817.4636
834.99302
855.39083
878.61204
904.63115
933.43111
965.00709
999.37568
1036.5588
1076.2285
1116.8496
1157.7661
1198.7007
1239.4088
1279.6728
1319.2758
1357.982
1395.5855
1431.8757
1466.6336
1499.6091
1530.9006
1562.8603
1596.9403
1633.3106
1672.1536
1713.6486
1757.9659
1805.3688
1856.0838
1910.3457
1968.4666
2030.7896
2097.5754
2122.6738
5874.3574
895.25322
6104.6825
908.70031
6284.9624
922.15901
6060.6706
6505.2775
2418.4696
2232.6689
2153.0358
2063.3211
1967.542
1878.6581
1813.8979
1770.5524
1765.5068
818.82781
3769.8042
840.3515
802.40121
1702.4181
627.56144
1201.7689
628.57536
1198.9874
2774.2974
1270.084
1260.5402
1289.0008
1333.5762
1386.0833
1455.2894
1520.9962
1577.4005
1622.4951
1654.5089
1673.5494
1680.8142
1677.2582
1663.5101
1640.4992
1609.0664
1570.1292
1524.5868
1475.3461
1428.426
1384.667
1343.8382
1305.7235
1270.115
1236.8362
1205.7107
1176.5886
1149.3267
1123.7967
1099.8767
1077.4565
1055.4904
1032.3209
1007.8977
982.37646
955.92065
928.67813
900.80674
872.45766
843.78819
814.81532
774.2922
525.41141
1210.1296
1103.2406
493.81965
1012.0772
638.02039
623.37245
606.85427
592.35821
579.89594
569.5259
561.27491
555.23608
551.43627
550.05457
550.9977
551.42965
553.13618
751.36641
757.16904
759.63483
760.36826
760.92762
761.16163
761.29809
754.17277
439.91272
760.0328
761.68567
761.71425
761.73518
761.741
761.74225
761.73213
761.71658
761.69085
761.65777
761.61125
761.43416
751.35194
436.26033
435.65681
435.69493
435.73779
435.7826
435.83155
435.88466
435.94358
436.00942
436.08446
436.17203
436.32466
442.26831
757.5231
758.13186
757.47918
756.60693
755.46049
753.71237
750.18855
729.809
551.95151
551.55573
551.53167
551.50769
551.48318
551.45785
551.4318
551.40501
551.37755
551.34949
551.3209
551.29191
551.26251
551.23282
551.20286
551.17278
551.14254
551.11227
551.08193
551.05169
551.02153
550.99154
550.96172
550.93214
550.90285
550.87391
550.84533
550.81707
550.78925
550.76189
550.7351
550.70872
550.68292
550.65768
550.63308
550.60908
550.58571
550.56297
550.54088
550.5195
550.49876
550.47875
550.45936
550.44071
550.42272
550.40549
550.38891
550.37301
550.35773
550.34313
550.32922
550.31593
550.30328
550.29122
550.28001
550.26938
550.25937
550.24996
550.24117
550.23289
550.22513
550.21786
550.21118
550.20507
550.19949
550.19446
550.18993
550.18598
550.18245
550.17937
550.17662
550.17442
550.17257
550.17117
550.17005
550.16944
550.16924
550.16943
550.17003
550.17102
550.17259
550.17447
550.17697
550.17977
550.18336
550.18723
550.19202
550.19711
550.20338
550.21004
550.2182
550.22684
550.23726
550.24844
550.26168
550.27628
550.29271
550.3095
550.39394
550.12077
549.66489
551.29004
555.16041
561.244
569.48784
579.84422
592.27262
606.73463
623.19921
641.64735
662.06769
684.45558
708.82357
735.18583
763.3063
792.09567
821.09394
850.10576
878.95799
907.49664
935.56864
963.00722
989.66846
1015.4038
1040.0584
1063.4568
1085.6827
1108.3948
1132.608
1158.4458
1186.0385
1215.5139
1246.9937
1280.6652
1316.688
1355.2325
1396.5167
1440.7843
1488.3081
1500.0858
4308.4282
689.22099
4464.9402
699.56564
4598.5023
711.84169
4396.7314
4818.4252
1753.7807
1591.311
1534.9454
1472.6852
1406.7141
1345.6027
1300.621
1269.5849
1268.7255
637.34361
2672.6766
656.88841
621.30849
1205.6488
521.30078
887.98656
522.27449
883.95769
2002.7891
948.17283
934.91411
955.04565
986.60233
1025.4017
1075.768
1124.2433
1165.9172
1199.4072
1223.1575
1237.3152
1242.7263
1240.1483
1230.0064
1213.0268
1189.8097
1161.0423
1127.4059
1091.0187
1056.3279
1023.9736
993.7854
965.60566
939.27934
914.677
891.66726
870.14003
849.98829
831.11738
813.43572
796.85884
780.61965
763.49696
745.44568
726.58066
707.02408
686.88306
666.27494
645.31073
624.10609
602.64712
572.59576
424.61921
850.56858
773.3381
396.50697
709.69104
471.42075
460.5511
448.33644
437.62179
428.40966
420.75142
414.66185
410.22737
407.46075
406.54291
407.41364
407.76647
409.14774
528.22583
531.84218
533.35731
533.81196
534.16391
534.31646
534.394
529.1158
348.26176
533.55462
534.6995
534.73058
534.7562
534.77184
534.78437
534.78914
534.79
534.78376
534.77221
534.75065
534.61591
527.20042
345.64652
345.25388
345.27811
345.30376
345.32901
345.35497
345.38169
345.40988
345.44012
345.47342
345.51121
345.59202
349.94011
532.14888
532.59802
532.18672
531.64106
530.92555
529.83412
527.59728
514.23077
408.28991
408.00764
407.97699
407.9463
407.91491
407.88252
407.84925
407.8151
407.78014
407.74448
407.70819
407.67143
407.63419
407.59662
407.55874
407.52074
407.48258
407.44439
407.40617
407.36808
407.33012
407.29239
407.25491
407.21775
407.18099
407.14466
407.10881
407.0734
407.03855
407.0043
406.97076
406.93777
406.90551
406.87398
406.84323
406.81326
406.78408
406.75572
406.72817
406.70151
406.67567
406.65073
406.6266
406.60338
406.58101
406.55958
406.53897
406.51921
406.50026
406.48215
406.46491
406.44846
406.43282
406.41791
406.40408
406.39094
406.37859
406.36701
406.3562
406.34603
406.33652
406.32765
406.31951
406.31207
406.3053
406.29922
406.29376
406.28901
406.2848
406.28115
406.27794
406.27538
406.2733
406.27175
406.2706
406.27003
406.27
406.27045
406.27142
406.27284
406.27499
406.27751
406.28081
406.28445
406.28906
406.29399
406.30005
406.30644
406.31428
406.32252
406.33259
406.34317
406.35592
406.36947
406.38554
406.40305
406.42287
406.44306
406.5206
406.35488
406.03148
407.22922
410.08085
414.56787
420.65061
428.29348
437.46722
448.1422
460.29628
473.91438
488.98892
505.51559
523.50416
542.96394
563.71753
584.96067
606.35832
627.76676
649.05914
670.1215
690.84209
711.09885
730.78603
749.79505
768.01302
785.31083
801.76586
818.59176
836.5203
855.65101
876.07994
897.90152
921.20745
946.1347
972.80263
1001.3388
1031.9026
1064.6747
1099.9419
1106.1044
3174.1191
578.80371
3280.1886
588.51067
3378.4437
600.16452
3204.6434
3580.1805
1325.0428
1182.4431
1141.049
1096.4505
1049.6595
1006.551
974.47223
951.55893
952.3589
533.5172
1918.0381
550.61336
517.64626
891.8303
450.31251
679.46771
451.0763
675.32229
1460.062
730.81258
716.69731
731.06682
753.65033
782.70301
820.28844
857.13238
888.8756
914.55574
932.74121
943.61056
947.76963
945.84714
938.1277
925.20454
907.51408
885.58904
859.9672
832.23473
805.77951
781.10619
758.08431
736.59583
716.52135
697.76311
680.22002
663.80891
648.44688
634.06206
620.58356
607.94142
595.55768
582.507
568.74578
554.36195
539.45012
524.08991
508.37138
492.37845
476.199
459.8098
437.26796
351.68261
611.41899
556.22795
325.77942
510.91369
359.55469
351.08719
341.76708
333.59516
326.56881
320.73543
316.10157
312.7508
310.6866
310.09537
310.93958
311.25108
312.35182
383.51286
385.76481
386.70468
386.99341
387.22503
387.33244
387.38153
383.61324
281.49115
386.87046
387.65046
387.68614
387.71769
387.74217
387.76415
387.78037
387.79334
387.80088
387.80408
387.79902
387.69738
382.43212
279.77545
279.53766
279.55376
279.56919
279.58267
279.59476
279.60554
279.61517
279.62395
279.63215
279.63998
279.67399
282.70721
386.14489
386.45223
386.18709
385.83979
385.38666
384.69554
383.25272
374.44756
311.78536
311.58278
311.54468
311.50646
311.46735
311.42712
311.38587
311.34362
311.30045
311.25649
311.21184
311.16666
311.12097
311.07493
311.02858
310.98211
310.93552
310.88894
310.84236
310.79599
310.74982
310.70397
310.65846
310.61338
310.56881
310.52479
310.4814
310.43857
310.39645
310.35508
310.31459
310.2748
310.23591
310.19792
310.1609
310.12484
310.08975
310.05566
310.02257
309.99057
309.95958
309.92968
309.90077
309.87297
309.84622
309.82059
309.79598
309.77239
309.7498
309.72824
309.70773
309.68818
309.66962
309.65195
309.63559
309.62005
309.60548
309.59184
309.57913
309.5672
309.55608
309.54575
309.5363
309.5277
309.5199
309.51293
309.50673
309.50136
309.49666
309.49263
309.48916
309.48645
309.48434
309.48286
309.48187
309.48159
309.48195
309.48288
309.48446
309.48657
309.48954
309.49296
309.4973
309.50206
309.50796
309.51422
309.52184
309.52983
309.53953
309.54968
309.56198
309.57482
309.59026
309.60653
309.62581
309.64663
309.67026
309.69433
309.76808
309.67286
309.43546
310.34498
312.51034
315.92247
320.55071
326.36739
333.351
341.47782
350.7318
361.1003
372.57835
385.16193
398.85895
413.67577
429.47381
445.64161
461.92794
478.22352
494.43262
510.46873
526.24769
541.67746
556.67841
571.16859
585.06348
598.26427
610.84807
623.72761
637.43798
652.06757
667.68931
684.37505
702.19553
721.25515
741.6466
763.46656
786.83764
811.89637
838.93683
843.28671
2344.2288
509.60577
2416.2401
519.52189
2488.0333
530.67143
2343.6174
2663.4414
1030.9135
907.69132
876.46724
843.79915
809.9758
779.19633
756.0891
738.99288
740.1984
465.2283
1393.6587
479.44518
449.41125
683.4846
396.65527
535.32611
397.0597
532.08037
1076.0318
577.56013
564.47803
574.66451
590.72992
612.56541
641.09005
669.74428
694.50948
714.71309
728.99433
737.55645
740.83425
739.36964
733.34541
723.26501
709.4481
692.31978
672.31992
650.66025
629.98452
610.70191
592.70968
575.91763
560.23136
545.57547
531.86997
519.05051
507.0512
495.81625
485.28954
475.40807
465.72885
455.53621
444.78494
433.54494
421.89164
409.88526
397.59663
385.09086
372.43646
359.61264
342.54543
294.88293
449.70067
410.54976
270.9395
377.5569
281.22738
274.38425
267.09374
260.70437
255.21077
250.65819
247.04744
244.46154
242.89765
242.54969
243.39422
243.68653
244.56189
287.08634
288.49718
289.09458
289.28778
289.4506
289.53525
289.57362
286.96834
230.43123
289.3017
289.83197
289.87273
289.91024
289.94221
289.97177
289.99652
290.01819
290.03518
290.04816
290.0535
289.97757
286.34973
229.43868
229.30718
229.31783
229.32652
229.33217
229.33512
229.33547
229.33307
229.32808
229.32035
229.30921
229.31116
231.32075
288.98148
289.17716
288.99819
288.76895
288.47275
288.021
287.06075
281.20829
244.22022
244.0704
244.02418
243.97771
243.9302
243.88147
243.83162
243.78069
243.72877
243.67602
243.62254
243.56852
243.51399
243.45913
243.40398
243.34876
243.29347
243.23826
243.18314
243.12831
243.07378
243.01969
242.96605
242.91297
242.86053
242.8088
242.75784
242.70759
242.65823
242.60979
242.5624
242.51587
242.47043
242.42609
242.38291
242.34087
242.3
242.26033
242.22185
242.18466
242.14868
242.11399
242.08049
242.04829
242.01734
241.98771
241.95929
241.93209
241.90606
241.88126
241.85769
241.83527
241.814
241.7938
241.77515
241.75742
241.74087
241.7254
241.71102
241.69758
241.68509
241.67354
241.66302
241.65349
241.64492
241.63731
241.63061
241.62487
241.61993
241.61578
241.6123
241.6097
241.60781
241.60665
241.60611
241.60635
241.60738
241.60906
241.61151
241.61458
241.61866
241.62325
241.62892
241.63507
241.64255
241.65045
241.65993
241.66981
241.68169
241.69406
241.70893
241.72438
241.74285
241.7622
241.78508
241.8096
241.83746
241.86587
241.93814
241.89153
241.71203
242.41867
244.1018
246.75922
250.36653
254.90166
260.34863
266.68773
273.90734
281.9964
290.95183
300.76979
311.457
323.01787
335.34059
347.94979
360.65257
373.36393
386.00984
398.5234
410.83982
422.88782
434.60651
445.93272
456.80191
467.13401
477.01275
487.13808
497.89826
509.38069
521.64159
534.73701
548.72305
563.68122
579.68499
596.80999
615.15363
634.82047