/*--------------------------------*- C++ -*----------------------------------*\
| =========                 |                                                 |
| \\      /  F ield         | OpenFOAM: The Open Source CFD Toolbox           |
|  \\    /   O peration     | Version:  2.4.0                                 |
|   \\  /    A nd           | Web:      www.OpenFOAM.org                      |
|    \\/     M anipulation  |                                                 |
\*---------------------------------------------------------------------------*/
FoamFile
{
    version     2.0;
    format      ascii;
    class       volScalarField;
    location    "20000";
    object      nut;
}
// * * * * * * * * * * * * * * * * * * * * * * * * * * * * * * * * * * * * * //

dimensions      [0 2 -1 0 0 0 0];

internalField   nonuniform List<scalar> 
9789
(
5.9546329e-12
3.5409357e-12
4.288611e-12
1.6130513e-12
6.2014715e-13
2.4141883e-14
3.0262073e-13
5.4842479e-13
3.5975585e-13
2.5659974e-13
1.4719645e-13
1.0409896e-13
7.7797303e-14
6.5720598e-14
5.5478009e-14
5.0139269e-14
4.4428217e-14
4.0224847e-14
3.5910193e-14
3.2469331e-14
2.9472394e-14
2.7684649e-14
2.6665536e-14
2.6243986e-14
2.6449587e-14
2.7301407e-14
2.8852798e-14
3.1263055e-14
3.4608761e-14
3.9132745e-14
4.4957078e-14
5.2321608e-14
6.1286373e-14
7.1721385e-14
8.2844396e-14
9.4640677e-14
1.0732758e-13
1.2062941e-13
1.3448337e-13
1.4846267e-13
1.6220653e-13
1.7511753e-13
1.8676599e-13
1.9644e-13
2.0406992e-13
2.092499e-13
2.14035e-13
2.1843816e-13
2.2106434e-13
2.2112309e-13
2.1880228e-13
2.1257399e-13
2.0438998e-13
1.9120752e-13
1.7840971e-13
1.5995116e-13
1.4771076e-13
1.2918946e-13
1.2926063e-13
1.222364e-13
1.7929448e-13
3.2395543e-13
4.5092216e-13
5.9677919e-13
7.3432725e-13
8.8000072e-13
1.01733e-12
1.1565238e-12
1.2886331e-12
1.4197092e-12
1.5450479e-12
1.6681591e-12
1.7865898e-12
1.9023448e-12
2.0141343e-12
2.1230738e-12
2.2284639e-12
2.3308944e-12
2.4299574e-12
2.525932e-12
2.6185509e-12
2.7079096e-12
2.793809e-12
2.8762409e-12
2.9550392e-12
3.0301404e-12
3.1013981e-12
3.1687215e-12
3.2319796e-12
3.2910797e-12
3.3459205e-12
3.3964314e-12
3.4425445e-12
3.484214e-12
3.521399e-12
3.5540768e-12
3.5822335e-12
3.605871e-12
1.0699789e-11
8.0950511e-12
7.8258973e-12
4.315666e-12
2.230364e-12
7.7145454e-13
5.0174584e-13
5.7726458e-13
3.5947215e-13
2.5408275e-13
1.4703026e-13
1.0491161e-13
7.9355221e-14
6.7493534e-14
5.7612171e-14
5.2461001e-14
4.707554e-14
4.3142705e-14
3.915962e-14
3.6034863e-14
3.339875e-14
3.2005931e-14
3.1471138e-14
3.1608448e-14
3.2457072e-14
3.4058757e-14
3.6489605e-14
3.9933885e-14
4.4506669e-14
5.0490759e-14
5.8058077e-14
6.7501778e-14
7.8944653e-14
9.2310914e-14
1.0686825e-13
1.226476e-13
1.4002561e-13
1.5890097e-13
1.7942298e-13
2.0123091e-13
2.2385104e-13
2.4672649e-13
2.6959028e-13
2.9184232e-13
3.1314576e-13
3.3083189e-13
3.3729951e-13
3.4912857e-13
3.7110035e-13
3.9200718e-13
4.1163528e-13
4.2801934e-13
4.4220475e-13
4.5047029e-13
4.5665609e-13
4.5404824e-13
4.5277846e-13
4.410057e-13
4.435939e-13
4.4053195e-13
5.1051051e-13
7.2400238e-13
9.2865578e-13
1.1398145e-12
1.3473671e-12
1.5570367e-12
1.7624335e-12
1.9655823e-12
2.1644681e-12
2.3600567e-12
2.5516751e-12
2.7401064e-12
2.9249732e-12
3.1069549e-12
3.2857575e-12
3.461876e-12
3.635049e-12
3.8055838e-12
3.9732445e-12
4.1381488e-12
4.3000983e-12
4.4590598e-12
4.6148461e-12
4.7673426e-12
4.9163537e-12
5.0617221e-12
5.2032446e-12
5.3407431e-12
5.4740138e-12
5.6028775e-12
5.7271548e-12
5.8466906e-12
5.9613362e-12
6.0709736e-12
6.175467e-12
6.2747214e-12
6.368641e-12
6.4571504e-12
1.2672453e-10
1.1365198e-10
9.3900277e-11
6.5640879e-11
3.7879719e-11
1.663958e-11
5.5454242e-12
1.8301769e-12
7.7939503e-13
5.047121e-13
3.1483072e-13
2.4379331e-13
2.0288896e-13
1.81528e-13
1.6687929e-13
1.5928916e-13
1.536154e-13
1.5013277e-13
1.4765796e-13
1.4682373e-13
1.4793049e-13
1.5244833e-13
1.6051708e-13
1.7147618e-13
1.8560428e-13
2.0342368e-13
2.2554167e-13
2.5283963e-13
2.8630408e-13
3.2732006e-13
3.7721117e-13
4.3763207e-13
5.1002324e-13
5.9519989e-13
6.9250528e-13
8.029283e-13
9.3029401e-13
1.0776722e-12
1.2494331e-12
1.4460725e-12
1.6644517e-12
1.9042193e-12
2.1682363e-12
2.4586081e-12
2.7748976e-12
3.100467e-12
3.3645637e-12
3.689876e-12
4.1269353e-12
4.5881151e-12
5.0649736e-12
5.5423048e-12
6.007192e-12
6.4335335e-12
6.8068499e-12
7.090245e-12
7.2884575e-12
7.3702201e-12
7.4263612e-12
7.488113e-12
7.981566e-12
1.0032471e-11
1.2214702e-11
1.4192619e-11
1.6244222e-11
1.8192704e-11
2.0200718e-11
2.21246e-11
2.4084964e-11
2.5991465e-11
2.7916053e-11
2.9811252e-11
3.1714e-11
3.3602314e-11
3.54935e-11
3.7377914e-11
3.926269e-11
4.114373e-11
4.3023355e-11
4.4899011e-11
4.6771245e-11
4.8637564e-11
5.0497499e-11
5.2348666e-11
5.4189809e-11
5.601862e-11
5.7833305e-11
5.9631604e-11
6.1411427e-11
6.317052e-11
6.4906788e-11
6.6618103e-11
6.8302427e-11
6.9958001e-11
7.1582571e-11
7.3174459e-11
7.4731802e-11
9.9768149e-10
9.049112e-10
7.3997608e-10
5.2523692e-10
3.0504499e-10
1.355673e-10
4.3610612e-11
1.1388917e-11
4.0813688e-12
2.4954183e-12
1.6315897e-12
1.3225375e-12
1.1534463e-12
1.0553189e-12
9.9955633e-13
9.7089235e-13
9.5962584e-13
9.5690002e-13
9.6283429e-13
9.7665986e-13
1.0032738e-12
1.049831e-12
1.1200641e-12
1.2097763e-12
1.3209938e-12
1.457755e-12
1.6245795e-12
1.827534e-12
2.0740108e-12
2.3735929e-12
2.7360917e-12
3.1732537e-12
3.6961966e-12
4.3122224e-12
5.0208199e-12
5.8299e-12
6.7685225e-12
7.862774e-12
9.1479564e-12
1.0630803e-11
1.2288567e-11
1.4122003e-11
1.6156904e-11
1.8416171e-11
2.0904686e-11
2.3541039e-11
2.5956091e-11
2.8800686e-11
3.2343901e-11
3.6099062e-11
3.9995813e-11
4.3919015e-11
4.7752431e-11
5.1300606e-11
5.4415093e-11
5.6829267e-11
5.8514258e-11
5.9285615e-11
5.9742539e-11
6.0284632e-11
6.3975838e-11
7.9850848e-11
9.689201e-11
1.1216701e-10
1.2808934e-10
1.4312598e-10
1.5869463e-10
1.7356759e-10
1.8877772e-10
2.0355503e-10
2.1851208e-10
2.3324236e-10
2.4806056e-10
2.6277629e-10
2.7753781e-10
2.9226024e-10
3.0700565e-10
3.2173734e-10
3.364765e-10
3.5120078e-10
3.6591614e-10
3.8060175e-10
3.9525494e-10
4.0985633e-10
4.2439667e-10
4.3885751e-10
4.532251e-10
4.6748155e-10
4.8161061e-10
4.9559445e-10
5.094166e-10
5.2306015e-10
5.3650889e-10
5.4974877e-10
5.6276169e-10
5.7553411e-10
5.8805095e-10
4.7856743e-09
4.346001e-09
3.5502011e-09
2.5249657e-09
1.4683888e-09
6.5415786e-10
2.1007084e-10
5.2881791e-11
1.84201e-11
1.1125636e-11
7.3312886e-12
5.9844351e-12
5.257315e-12
4.8259676e-12
4.590821e-12
4.4702044e-12
4.4335738e-12
4.4332126e-12
4.4743441e-12
4.5503764e-12
4.6856839e-12
4.9119675e-12
5.2484758e-12
5.6759149e-12
6.2037178e-12
6.8509963e-12
7.6390659e-12
8.5962583e-12
9.7574598e-12
1.1167497e-11
1.2872632e-11
1.4927995e-11
1.738638e-11
2.0283186e-11
2.3618725e-11
2.743014e-11
3.1854621e-11
3.7017054e-11
4.3086074e-11
5.0096195e-11
5.7940652e-11
6.6624417e-11
7.6272379e-11
8.7000284e-11
9.8850808e-11
1.115552e-10
1.2386149e-10
1.3808749e-10
1.5514837e-10
1.7324103e-10
1.9202493e-10
2.1094954e-10
2.2944956e-10
2.4659113e-10
2.6164344e-10
2.7333689e-10
2.8149771e-10
2.8526961e-10
2.8747064e-10
2.9009966e-10
3.0769871e-10
3.8374488e-10
4.6542571e-10
5.385707e-10
6.1485866e-10
6.8685522e-10
7.6143791e-10
8.3266253e-10
9.0553107e-10
9.763164e-10
1.0479832e-09
1.118563e-09
1.1895789e-09
1.2601079e-09
1.330868e-09
1.4014471e-09
1.4721463e-09
1.5427871e-09
1.6134729e-09
1.6840952e-09
1.7546836e-09
1.8251376e-09
1.8954449e-09
1.9655122e-09
2.0352957e-09
2.1047066e-09
2.1736794e-09
2.2421282e-09
2.3099751e-09
2.3771348e-09
2.4435281e-09
2.5090741e-09
2.5736948e-09
2.6373229e-09
2.6998715e-09
2.7612753e-09
1.6793774e-08
1.5255455e-08
1.2460521e-08
8.8699342e-09
5.1635012e-09
2.3043624e-09
7.4123561e-10
1.8466854e-10
6.3870257e-11
3.840882e-11
2.533551e-11
2.0695402e-11
1.8202563e-11
1.6717677e-11
1.5914797e-11
1.5503157e-11
1.5385846e-11
1.5392677e-11
1.5544393e-11
1.5816039e-11
1.6292697e-11
1.7083338e-11
1.8256668e-11
1.974624e-11
2.158446e-11
2.3837806e-11
2.6580412e-11
2.9910641e-11
3.3949811e-11
3.8853684e-11
4.4783258e-11
5.1930323e-11
6.047943e-11
7.0554236e-11
8.2159898e-11
9.5424342e-11
1.1082324e-10
1.2879292e-10
1.4992361e-10
1.7434091e-10
2.0167404e-10
2.3193931e-10
2.6557482e-10
3.0299628e-10
3.4439504e-10
3.8908865e-10
4.3382499e-10
4.8500249e-10
5.4498825e-10
6.0861662e-10
6.7468869e-10
7.4127134e-10
8.0637366e-10
8.6671459e-10
9.1971262e-10
9.6090594e-10
9.8965768e-10
1.0029674e-09
1.0107039e-09
1.0199454e-09
1.0816078e-09
1.3486817e-09
1.6354008e-09
1.8921875e-09
2.1600391e-09
2.4127734e-09
2.6746113e-09
2.9246284e-09
3.1804332e-09
3.4289074e-09
3.6804857e-09
3.9282395e-09
4.1775295e-09
4.4251066e-09
4.6734981e-09
4.9212534e-09
5.1694327e-09
5.4174075e-09
5.6655428e-09
5.9134569e-09
6.1612551e-09
6.4085841e-09
6.655402e-09
6.9013817e-09
7.1463694e-09
7.3900547e-09
7.6322075e-09
7.8725271e-09
8.1107409e-09
8.3465494e-09
8.5796759e-09
8.809836e-09
9.036757e-09
9.2602027e-09
9.4798682e-09
9.695525e-09
4.7868657e-08
4.3493188e-08
3.5526754e-08
2.5313049e-08
1.4753418e-08
6.5971458e-09
2.1273109e-09
5.2777483e-10
1.8190565e-10
1.0905962e-10
7.1923218e-11
5.8724767e-11
5.165756e-11
4.7444671e-11
4.5171084e-11
4.4005549e-11
4.3679202e-11
4.3704887e-11
4.4142362e-11
4.4919042e-11
4.6274933e-11
4.8518353e-11
5.1847322e-11
5.6074758e-11
6.1291451e-11
6.7685836e-11
7.5468154e-11
8.4917258e-11
9.637716e-11
1.1028973e-10
1.2711193e-10
1.4738937e-10
1.7164518e-10
2.0023275e-10
2.3317322e-10
2.7083148e-10
3.1454523e-10
3.6555731e-10
4.2555113e-10
4.9489732e-10
5.7254426e-10
6.5853208e-10
7.5410888e-10
8.6047879e-10
9.7826965e-10
1.1060338e-09
1.2367036e-09
1.3851992e-09
1.5566179e-09
1.7384753e-09
1.9273461e-09
2.1177082e-09
2.3038707e-09
2.4764534e-09
2.6280662e-09
2.7459412e-09
2.8282259e-09
2.8663258e-09
2.8884122e-09
2.9147415e-09
3.0903413e-09
3.8531864e-09
4.6713044e-09
5.4042847e-09
6.1688658e-09
6.8901699e-09
7.6374656e-09
8.3509315e-09
9.0809107e-09
9.7899067e-09
1.0507746e-08
1.1214628e-08
1.1925874e-08
1.26322e-08
1.334083e-08
1.4047621e-08
1.4755604e-08
1.5462985e-08
1.6170809e-08
1.6877988e-08
1.7584827e-08
1.829032e-08
1.8994349e-08
1.9695985e-08
2.0394791e-08
2.1089885e-08
2.1780614e-08
2.2466122e-08
2.3145635e-08
2.3818302e-08
2.4483335e-08
2.5139928e-08
2.5787303e-08
2.6424791e-08
2.7051522e-08
2.766685e-08
1.1773036e-07
1.0699729e-07
8.7414334e-08
6.2361726e-08
3.6405494e-08
1.6319096e-08
5.2779885e-09
1.3070494e-09
4.4926131e-10
2.6860314e-10
1.7704537e-10
1.4445211e-10
1.2705182e-10
1.1667933e-10
1.1108403e-10
1.0821573e-10
1.0741774e-10
1.0748707e-10
1.0856902e-10
1.104834e-10
1.1381435e-10
1.1931895e-10
1.2749014e-10
1.378718e-10
1.5068406e-10
1.6638909e-10
1.8550302e-10
2.0871011e-10
2.3685478e-10
2.710224e-10
3.1233794e-10
3.6213959e-10
4.2171176e-10
4.919361e-10
5.728607e-10
6.6541502e-10
7.7283054e-10
8.9817701e-10
1.0456089e-09
1.2160729e-09
1.4069868e-09
1.6184293e-09
1.8534729e-09
2.115122e-09
2.4050743e-09
2.7206373e-09
3.0483054e-09
3.4189821e-09
3.8422727e-09
4.2914022e-09
4.7579247e-09
5.228206e-09
5.688195e-09
6.114713e-09
6.489488e-09
6.7809348e-09
6.9844095e-09
7.0786061e-09
7.1330294e-09
7.1976718e-09
7.6292504e-09
9.5123726e-09
1.1528712e-08
1.3336159e-08
1.5221462e-08
1.6999636e-08
1.8841828e-08
2.0600302e-08
2.2399391e-08
2.4146528e-08
2.5915351e-08
2.7656999e-08
2.9409289e-08
3.1149323e-08
3.289493e-08
3.4635898e-08
3.6379712e-08
3.8121958e-08
3.9865226e-08
4.1606842e-08
4.3347568e-08
4.5084934e-08
4.6818667e-08
4.8546483e-08
5.0267324e-08
5.1979027e-08
5.3679994e-08
5.5368133e-08
5.7041547e-08
5.8698152e-08
6.0336022e-08
6.1953179e-08
6.354772e-08
6.5118007e-08
6.6661909e-08
2.5929916e-07
2.3574071e-07
1.9266467e-07
1.3768653e-07
8.0556825e-08
3.6224533e-08
1.1758371e-08
2.9101367e-09
9.9763074e-10
5.9481195e-10
3.9180292e-10
3.1941391e-10
2.8088112e-10
2.5791699e-10
2.4552961e-10
2.3917936e-10
2.374184e-10
2.375797e-10
2.3997827e-10
2.4421388e-10
2.5156116e-10
2.6369271e-10
2.817107e-10
3.046161e-10
3.3288773e-10
3.6754411e-10
4.0972365e-10
4.6093511e-10
5.2304029e-10
5.9843837e-10
6.8961159e-10
7.9950614e-10
9.3096184e-10
1.0859604e-09
1.2645795e-09
1.4689525e-09
1.706113e-09
1.9828362e-09
2.30835e-09
2.6848246e-09
3.1065618e-09
3.573686e-09
4.0929861e-09
4.6711777e-09
5.3122774e-09
6.0117737e-09
6.7462762e-09
7.5744433e-09
8.5125897e-09
9.5081353e-09
1.05424e-08
1.1585171e-08
1.2605315e-08
1.3551423e-08
1.4382941e-08
1.5029727e-08
1.5481319e-08
1.5690266e-08
1.5810406e-08
1.5952326e-08
1.6902528e-08
2.1074914e-08
2.5532066e-08
2.9530137e-08
3.3699988e-08
3.7631577e-08
4.1704384e-08
4.5591072e-08
4.9567147e-08
5.3427634e-08
5.7335623e-08
6.1182987e-08
6.5053454e-08
6.8896389e-08
7.275127e-08
7.659554e-08
8.0445784e-08
8.4292279e-08
8.8140785e-08
9.1985426e-08
9.5827931e-08
9.9662877e-08
1.0348971e-07
1.0730341e-07
1.111017e-07
1.1487983e-07
1.1863432e-07
1.223606e-07
1.2605452e-07
1.2971152e-07
1.3332739e-07
1.3689779e-07
1.4041856e-07
1.4388612e-07
1.4729581e-07
5.2388743e-07
4.7649989e-07
3.8969338e-07
2.7914562e-07
1.6381823e-07
7.3968317e-08
2.4117971e-08
5.9703184e-09
2.0410768e-09
1.2134988e-09
7.9874556e-10
6.5061486e-10
5.7199638e-10
5.251574e-10
4.9988873e-10
4.8693448e-10
4.8335098e-10
4.8369283e-10
4.8858696e-10
4.9721706e-10
5.1213841e-10
5.3675858e-10
5.7334702e-10
6.1988841e-10
6.7734146e-10
7.4777301e-10
8.3349543e-10
9.3757235e-10
1.0637865e-09
1.2170243e-09
1.4023124e-09
1.6256241e-09
1.8927693e-09
2.2078371e-09
2.5709248e-09
2.9864542e-09
3.4687115e-09
4.031296e-09
4.6931384e-09
5.4588229e-09
6.316762e-09
7.2671026e-09
8.323645e-09
9.5001861e-09
1.0805339e-08
1.2232183e-08
1.374332e-08
1.5442891e-08
1.7356304e-08
1.9387053e-08
2.1497128e-08
2.3624924e-08
2.5706959e-08
2.763831e-08
2.9336132e-08
3.0657059e-08
3.1579315e-08
3.2005578e-08
3.2248938e-08
3.2534166e-08
3.4454445e-08
4.2961564e-08
5.2019546e-08
6.0151464e-08
6.8631114e-08
7.6622483e-08
8.4899689e-08
9.2795699e-08
1.0087201e-07
1.0871133e-07
1.1664578e-07
1.2445546e-07
1.323108e-07
1.4010892e-07
1.4793019e-07
1.5572887e-07
1.6353876e-07
1.7134022e-07
1.7914506e-07
1.8694145e-07
1.9473302e-07
2.0250888e-07
2.1026802e-07
2.180004e-07
2.2570149e-07
2.3336182e-07
2.4097442e-07
2.4853015e-07
2.5602073e-07
2.6343702e-07
2.707706e-07
2.7801277e-07
2.8515521e-07
2.9219077e-07
2.991101e-07
9.8674558e-07
8.9799637e-07
7.3524632e-07
5.2829886e-07
3.1131337e-07
1.4131718e-07
4.6341049e-08
1.1481192e-08
3.9135617e-09
2.3199642e-09
1.5258167e-09
1.2417608e-09
1.0914505e-09
1.0019293e-09
9.536275e-10
9.2886382e-10
9.2203015e-10
9.2270779e-10
9.3206381e-10
9.4854204e-10
9.7692858e-10
1.0237358e-09
1.0933425e-09
1.1819395e-09
1.291324e-09
1.4254251e-09
1.5886426e-09
1.7868027e-09
2.0271269e-09
2.3188942e-09
2.6716475e-09
3.0967589e-09
3.6053483e-09
4.2053364e-09
4.8968108e-09
5.6880651e-09
6.6068623e-09
7.6782894e-09
8.9388643e-09
1.0397672e-08
1.2032628e-08
1.3843778e-08
1.5857392e-08
1.8099997e-08
2.0588706e-08
2.3313714e-08
2.6219184e-08
2.9480548e-08
3.3134378e-08
3.7012759e-08
4.1043298e-08
4.5108395e-08
4.9086852e-08
5.2778192e-08
5.6023895e-08
5.8549578e-08
6.0312596e-08
6.1125911e-08
6.1585479e-08
6.211823e-08
6.5739649e-08
8.1978197e-08
9.9190611e-08
1.1465981e-07
1.3078539e-07
1.4597272e-07
1.6169962e-07
1.7669467e-07
1.9202843e-07
2.0690651e-07
2.2196151e-07
2.3677538e-07
2.5167253e-07
2.6645772e-07
2.8128393e-07
2.9606461e-07
3.1086416e-07
3.2564565e-07
3.4043175e-07
3.5520032e-07
3.6995859e-07
3.8468617e-07
3.9938152e-07
4.1402587e-07
4.28611e-07
4.4311928e-07
4.5753784e-07
4.7184967e-07
4.860394e-07
5.0009006e-07
5.139859e-07
5.2771083e-07
5.4124928e-07
5.5458803e-07
1.7518815e-06
1.5954905e-06
1.3086915e-06
9.4405425e-07
5.5934617e-07
2.5566107e-07
8.4443316e-08
2.0953529e-08
7.1196755e-09
4.2077309e-09
2.7649707e-09
2.2482282e-09
1.9756185e-09
1.8133139e-09
1.7257286e-09
1.6808221e-09
1.6684641e-09
1.669741e-09
1.6867107e-09
1.7165664e-09
1.7677834e-09
1.8521842e-09
1.9777839e-09
2.1377533e-09
2.3352856e-09
2.5774639e-09
2.8722268e-09
3.2301022e-09
3.6641414e-09
4.1910321e-09
4.8279344e-09
5.595489e-09
6.5137727e-09
7.5974389e-09
8.8464986e-09
1.0275114e-08
1.193521e-08
1.3870504e-08
1.6147435e-08
1.8783265e-08
2.1738054e-08
2.5011407e-08
2.8650719e-08
3.2704328e-08
3.7204226e-08
4.2137597e-08
4.7426085e-08
5.3352937e-08
5.9966852e-08
6.6988053e-08
7.4285845e-08
8.1647445e-08
8.8853505e-08
9.5540903e-08
1.01422e-07
1.0599896e-07
1.0919217e-07
1.1066058e-07
1.1147817e-07
1.1241165e-07
1.1885865e-07
1.4823723e-07
1.7918969e-07
2.0704494e-07
2.3606852e-07
2.6338043e-07
2.9165304e-07
3.1859213e-07
3.4613026e-07
3.7283661e-07
3.9985149e-07
4.2642345e-07
4.5313665e-07
4.7964104e-07
5.0621208e-07
5.3269524e-07
5.5920663e-07
5.8568087e-07
6.1215927e-07
6.3860286e-07
6.6502542e-07
6.9139103e-07
7.176978e-07
7.4391281e-07
7.7002212e-07
7.9599497e-07
8.2180898e-07
8.4743453e-07
8.7284489e-07
8.9801014e-07
9.2290303e-07
9.4749531e-07
9.717596e-07
9.9567328e-07
2.9544046e-06
2.6933566e-06
2.2151031e-06
1.6057851e-06
9.5812698e-07
4.4178708e-07
1.4724634e-07
3.6627847e-08
1.2402509e-08
7.3066057e-09
4.7967262e-09
3.8967791e-09
3.4234754e-09
3.1417777e-09
2.9897435e-09
2.9117888e-09
2.8904075e-09
2.8927195e-09
2.9221959e-09
2.9740035e-09
3.0624553e-09
3.2081258e-09
3.4250639e-09
3.701549e-09
4.0430077e-09
4.4616595e-09
4.9712102e-09
5.5899441e-09
6.3402665e-09
7.2509504e-09
8.3516051e-09
9.6780488e-09
1.1264919e-08
1.3138266e-08
1.5298025e-08
1.7766297e-08
2.063641e-08
2.3982455e-08
2.7918417e-08
3.247628e-08
3.7586841e-08
4.3248518e-08
4.954308e-08
5.655473e-08
6.4340388e-08
7.2884746e-08
8.208426e-08
9.2380583e-08
1.038331e-07
1.1599201e-07
1.2863162e-07
1.4138364e-07
1.5386818e-07
1.6545609e-07
1.7564787e-07
1.8357929e-07
1.8910732e-07
1.9163651e-07
1.930158e-07
1.9455773e-07
2.0548044e-07
2.5631745e-07
3.0945011e-07
3.5734781e-07
4.0722184e-07
4.5410413e-07
5.026125e-07
5.4879396e-07
5.9598039e-07
6.4171242e-07
6.8795223e-07
7.3341174e-07
7.7909485e-07
8.2440343e-07
8.6981092e-07
9.1505478e-07
9.6033482e-07
1.0055413e-06
1.0507463e-06
1.0958848e-06
1.1409822e-06
1.1859784e-06
1.2308723e-06
1.2756089e-06
1.3201664e-06
1.3644939e-06
1.4085546e-06
1.4523e-06
1.4956855e-06
1.538662e-06
1.5811843e-06
1.6232055e-06
1.6646799e-06
4.758259e-06
4.3438455e-06
3.5857575e-06
2.6149528e-06
1.5740766e-06
7.3379643e-07
2.4734778e-07
6.1759922e-08
2.0833699e-08
1.2232613e-08
8.0222073e-09
6.5112496e-09
5.7191137e-09
5.2478082e-09
4.9934134e-09
4.8629691e-09
4.8273363e-09
4.831393e-09
4.8807751e-09
4.9674871e-09
5.1147281e-09
5.3570628e-09
5.7182441e-09
6.1788788e-09
6.7478423e-09
7.4454523e-09
8.2945732e-09
9.3257377e-09
1.0575943e-08
1.209293e-08
1.3926268e-08
1.6135559e-08
1.8778464e-08
2.1899642e-08
2.5499129e-08
2.960882e-08
3.4389305e-08
3.9965154e-08
4.6521945e-08
5.4116972e-08
6.2634857e-08
7.2071223e-08
8.2561944e-08
9.4248245e-08
1.0722724e-07
1.2148268e-07
1.3688606e-07
1.5410624e-07
1.7320745e-07
1.9348803e-07
2.1457246e-07
2.3584661e-07
2.566766e-07
2.7601239e-07
2.9301794e-07
3.062481e-07
3.1545386e-07
3.1963289e-07
3.2184718e-07
3.2425029e-07
3.4198886e-07
4.2665504e-07
5.1430198e-07
5.9346179e-07
6.7581603e-07
7.5312671e-07
8.3306825e-07
9.090959e-07
9.8673079e-07
1.0619138e-06
1.1378885e-06
1.2125364e-06
1.2875142e-06
1.3618424e-06
1.4363023e-06
1.5104672e-06
1.5846673e-06
1.6587273e-06
1.7327678e-06
1.8066859e-06
1.8805268e-06
1.954195e-06
2.0276926e-06
2.1009323e-06
2.173882e-06
2.2464621e-06
2.3186147e-06
2.3902641e-06
2.4613403e-06
2.531766e-06
2.6014699e-06
2.6703781e-06
2.7384182e-06
7.3475835e-06
6.7205128e-06
5.5746765e-06
4.0941359e-06
2.4910277e-06
1.1769256e-06
4.0227447e-07
1.010007e-07
3.3932177e-08
1.9852975e-08
1.300455e-08
1.0545702e-08
9.2608125e-09
8.4965621e-09
8.0840127e-09
7.8724706e-09
7.8149723e-09
7.8219118e-09
7.9021475e-09
8.0429075e-09
8.2804531e-09
8.6711435e-09
9.2539377e-09
9.9977236e-09
1.0916551e-08
1.2043146e-08
1.3414675e-08
1.5080098e-08
1.7098726e-08
1.9547459e-08
2.2506717e-08
2.6072347e-08
3.0337652e-08
3.5376454e-08
4.1189653e-08
4.7819966e-08
5.5532473e-08
6.4533582e-08
7.5117754e-08
8.7379291e-08
1.0113348e-07
1.1637008e-07
1.3330755e-07
1.5217518e-07
1.7313281e-07
1.9616621e-07
2.2112722e-07
2.490037e-07
2.7985171e-07
3.1260441e-07
3.4665643e-07
3.8101599e-07
4.1465821e-07
4.4588605e-07
4.7334363e-07
4.9469082e-07
5.0950579e-07
5.1615336e-07
5.1953707e-07
5.2305987e-07
5.5083204e-07
6.8717218e-07
8.2681273e-07
9.5316508e-07
1.0844695e-06
1.2075327e-06
1.3346803e-06
1.4554517e-06
1.5786816e-06
1.697908e-06
1.8183048e-06
1.9365152e-06
2.0551758e-06
2.172743e-06
2.2904603e-06
2.4076624e-06
2.5248744e-06
2.6418294e-06
2.7587228e-06
2.8753983e-06
2.9919353e-06
3.1081872e-06
3.2241658e-06
3.3397379e-06
3.4548607e-06
3.5694121e-06
3.6833092e-06
3.7964374e-06
3.9086919e-06
4.0199563e-06
4.1301231e-06
4.2390805e-06
4.3467196e-06
1.091157e-05
1.0006089e-05
8.3505463e-06
6.1826461e-06
3.8095603e-06
1.8288958e-06
6.3575436e-07
1.6089636e-07
5.3819969e-08
3.1370092e-08
2.0521949e-08
1.6626839e-08
1.4598245e-08
1.3391993e-08
1.2740816e-08
1.2406926e-08
1.2316723e-08
1.2328349e-08
1.245534e-08
1.2677925e-08
1.3050958e-08
1.3663988e-08
1.4579308e-08
1.5748296e-08
1.7192577e-08
1.8963535e-08
2.1119984e-08
2.3737862e-08
2.6909673e-08
3.0756673e-08
3.5405212e-08
4.1005199e-08
4.7704048e-08
5.5619602e-08
6.4755753e-08
7.5165551e-08
8.7268728e-08
1.0140167e-07
1.1802905e-07
1.3728799e-07
1.5889527e-07
1.8282905e-07
2.0943057e-07
2.390615e-07
2.7197668e-07
3.0816867e-07
3.4748264e-07
3.9134611e-07
4.3978246e-07
4.9120505e-07
5.4466405e-07
5.9860151e-07
6.5140493e-07
7.0040738e-07
7.4346932e-07
7.7690669e-07
8.0002201e-07
8.1022066e-07
8.1512679e-07
8.1994075e-07
8.620459e-07
1.0750871e-06
1.2907765e-06
1.4862729e-06
1.6891508e-06
1.87893e-06
2.0748101e-06
2.2605952e-06
2.4499842e-06
2.6330216e-06
2.8176987e-06
2.9988737e-06
3.1806078e-06
3.3605526e-06
3.5406231e-06
3.7198208e-06
3.8989527e-06
4.0776315e-06
4.2561624e-06
4.4343196e-06
4.6122376e-06
4.7896998e-06
4.9667416e-06
5.1431625e-06
5.3189134e-06
5.4938172e-06
5.6677576e-06
5.840569e-06
6.0121016e-06
6.1821861e-06
6.3506674e-06
6.5173828e-06
6.6821752e-06
1.5625453e-05
1.4376682e-05
1.2084766e-05
9.0286903e-06
5.6438885e-06
2.7602884e-06
9.789674e-07
2.5053643e-07
8.3425961e-08
4.8429451e-08
3.1635062e-08
2.5607806e-08
2.2479724e-08
2.0620207e-08
1.9616365e-08
1.9101694e-08
1.8963667e-08
1.8982817e-08
1.9179306e-08
1.952337e-08
2.009558e-08
2.1034982e-08
2.243908e-08
2.423358e-08
2.6450923e-08
2.9170308e-08
3.2481801e-08
3.6500479e-08
4.1367203e-08
4.7269353e-08
5.4399839e-08
6.2987871e-08
7.3261046e-08
8.5401908e-08
9.9421857e-08
1.1538168e-07
1.3391942e-07
1.5557487e-07
1.8107604e-07
2.1060874e-07
2.437428e-07
2.8043848e-07
3.2121513e-07
3.6662873e-07
4.1707386e-07
4.7255662e-07
5.3293937e-07
6.0024514e-07
6.7442231e-07
7.5315616e-07
8.3499073e-07
9.1753717e-07
9.983183e-07
1.0732454e-06
1.139023e-06
1.1899959e-06
1.2250373e-06
1.2401329e-06
1.246827e-06
1.2528412e-06
1.3148882e-06
1.6387839e-06
1.9627013e-06
2.2567213e-06
2.5613387e-06
2.8456564e-06
3.1387582e-06
3.4162923e-06
3.6988941e-06
3.9716852e-06
4.2466455e-06
4.516146e-06
4.7862535e-06
5.0535123e-06
5.3207823e-06
5.5866198e-06
5.852224e-06
6.1170598e-06
6.3815893e-06
6.6454991e-06
6.9090142e-06
7.1718204e-06
7.4339949e-06
7.6952603e-06
7.9555574e-06
8.2146423e-06
8.4723586e-06
8.7284764e-06
8.9827883e-06
9.2350583e-06
9.4850692e-06
9.7325932e-06
9.9774103e-06
2.1632776e-05
1.9986216e-05
1.6938046e-05
1.2779292e-05
8.1161012e-06
4.0535276e-06
1.4715448e-06
3.8237254e-07
1.2675162e-07
7.3257708e-08
4.7771993e-08
3.8635915e-08
3.3911729e-08
3.1104137e-08
2.9588526e-08
2.8811605e-08
2.8605074e-08
2.8636166e-08
2.8934243e-08
2.9455594e-08
3.0315465e-08
3.1725216e-08
3.3834854e-08
3.6533005e-08
3.9867216e-08
4.3957994e-08
4.8938126e-08
5.4979105e-08
6.2291894e-08
7.1159346e-08
8.1869206e-08
9.4765538e-08
1.1019146e-07
1.284227e-07
1.4948656e-07
1.7344532e-07
2.0123789e-07
2.3370613e-07
2.7197913e-07
3.1632e-07
3.660501e-07
4.2111187e-07
4.8227719e-07
5.5038053e-07
6.2601682e-07
7.0921393e-07
7.9988939e-07
9.0085939e-07
1.011928e-06
1.1297745e-06
1.2522115e-06
1.3756539e-06
1.4963755e-06
1.6082455e-06
1.7062978e-06
1.7820495e-06
1.8337225e-06
1.8552535e-06
1.8637015e-06
1.8702755e-06
1.9594578e-06
2.4395608e-06
2.9135689e-06
3.344317e-06
3.7897377e-06
4.2044363e-06
4.6313427e-06
5.034833e-06
5.4451602e-06
5.8407173e-06
6.2389669e-06
6.6289253e-06
7.0193988e-06
7.4054594e-06
7.7912568e-06
8.1747788e-06
8.557748e-06
8.9394649e-06
9.3206086e-06
9.7007569e-06
1.0080266e-05
1.0458719e-05
1.0836244e-05
1.1212476e-05
1.1587349e-05
1.196054e-05
1.2331847e-05
1.270096e-05
1.3067602e-05
1.3431453e-05
1.3792219e-05
1.4149589e-05
1.4503265e-05
2.9034479e-05
2.6955529e-05
2.304908e-05
1.757029e-05
1.1348665e-05
5.8001217e-06
2.1620003e-06
5.7321399e-07
1.8921727e-07
1.0883874e-07
7.0834696e-08
5.7237221e-08
5.0233328e-08
4.6071985e-08
4.3825726e-08
4.267458e-08
4.237176e-08
4.242161e-08
4.2866027e-08
4.3642178e-08
4.4911129e-08
4.6987623e-08
5.0099375e-08
5.408206e-08
5.9004514e-08
6.5046163e-08
7.239799e-08
8.1310189e-08
9.2096037e-08
1.0517169e-07
1.2095843e-07
1.399641e-07
1.6269475e-07
1.8955681e-07
2.2060838e-07
2.5590446e-07
2.9678616e-07
3.4452082e-07
4.0083866e-07
4.6617384e-07
5.3938343e-07
6.2041244e-07
7.1038255e-07
8.1051853e-07
9.2169457e-07
1.0439691e-06
1.17737e-06
1.3257513e-06
1.4886636e-06
1.6614114e-06
1.8407656e-06
2.0214484e-06
2.1979595e-06
2.3612908e-06
2.5041088e-06
2.6139617e-06
2.6881139e-06
2.7176234e-06
2.7271139e-06
2.732645e-06
2.858121e-06
3.5530032e-06
4.230086e-06
4.8458364e-06
5.481205e-06
6.0711285e-06
6.6774479e-06
7.249387e-06
7.8301736e-06
8.3892751e-06
8.9514735e-06
9.5014068e-06
1.005151e-05
1.0594965e-05
1.1137627e-05
1.1676795e-05
1.2214863e-05
1.2750955e-05
1.3286046e-05
1.3819607e-05
1.4352158e-05
1.4883176e-05
1.5412859e-05
1.5940748e-05
1.6466775e-05
1.6990524e-05
1.7511741e-05
1.8030022e-05
1.8545005e-05
1.9056268e-05
1.9563421e-05
2.0066051e-05
2.0563763e-05
3.7887937e-05
3.536896e-05
3.0528267e-05
2.3519059e-05
1.5456741e-05
8.0962773e-06
3.1072357e-06
8.4537738e-07
2.7811191e-07
1.591377e-07
1.0333128e-07
8.3421338e-08
7.3208556e-08
6.7142267e-08
6.3868075e-08
6.2190789e-08
6.175499e-08
6.1834025e-08
6.2486539e-08
6.3623813e-08
6.546675e-08
6.847427e-08
7.298882e-08
7.877107e-08
8.592049e-08
9.4696442e-08
1.053692e-07
1.182983e-07
1.3394244e-07
1.5290092e-07
1.7578119e-07
2.0331943e-07
2.36249e-07
2.7515413e-07
3.2014711e-07
3.7127039e-07
4.303841e-07
4.9931844e-07
5.8070787e-07
6.7532915e-07
7.8124283e-07
8.983882e-07
1.0283799e-06
1.1729771e-06
1.3334323e-06
1.50984e-06
1.7024144e-06
1.9163416e-06
2.1507486e-06
2.3990815e-06
2.6566443e-06
2.9158023e-06
3.1685753e-06
3.4019759e-06
3.6053804e-06
3.7608908e-06
3.8644168e-06
3.9030827e-06
3.9116384e-06
3.9130375e-06
4.0865328e-06
5.069684e-06
6.0151356e-06
6.8751681e-06
7.76059e-06
8.5802787e-06
9.4212768e-06
1.0212985e-05
1.1015667e-05
1.1787295e-05
1.2562143e-05
1.3319318e-05
1.4075917e-05
1.4822778e-05
1.5567959e-05
1.6307892e-05
1.7045908e-05
1.7780899e-05
1.8514237e-05
1.9245289e-05
1.9974792e-05
2.0702114e-05
2.1427546e-05
2.2150528e-05
2.2870997e-05
2.358843e-05
2.4302515e-05
2.5012734e-05
2.5718624e-05
2.6419637e-05
2.7115267e-05
2.7804977e-05
2.8488248e-05
4.8215349e-05
4.5278341e-05
3.9457634e-05
3.0721753e-05
2.0542378e-05
1.1037464e-05
4.3708956e-06
1.2279284e-06
4.0316536e-07
2.2938603e-07
1.485395e-07
1.1981037e-07
1.0514022e-07
9.6428768e-08
9.1727569e-08
8.9320524e-08
8.8704111e-08
8.8828113e-08
8.9773141e-08
9.1415573e-08
9.4054627e-08
9.8344208e-08
1.0479658e-07
1.1306667e-07
1.2329938e-07
1.3585582e-07
1.5111493e-07
1.6958915e-07
1.9193686e-07
2.1900638e-07
2.5166254e-07
2.9095171e-07
3.3792206e-07
3.9339405e-07
4.5756668e-07
5.3047442e-07
6.146234e-07
7.1256456e-07
8.2824616e-07
9.6306362e-07
1.1138974e-06
1.280505e-06
1.4652315e-06
1.6705512e-06
1.8982132e-06
2.1483458e-06
2.4214443e-06
2.72437e-06
3.0555673e-06
3.4059904e-06
3.7689026e-06
4.1334341e-06
4.4881949e-06
4.8147958e-06
5.0981332e-06
5.3130111e-06
5.4535154e-06
5.5014996e-06
5.5051183e-06
5.497217e-06
5.7340394e-06
7.0949024e-06
8.3872157e-06
9.5623056e-06
1.0769339e-05
1.1883385e-05
1.3024277e-05
1.4096152e-05
1.5181054e-05
1.6222572e-05
1.7266949e-05
1.8286504e-05
1.930414e-05
2.0307936e-05
2.1308647e-05
2.230172e-05
2.3291659e-05
2.4277112e-05
2.5259957e-05
2.6239465e-05
2.7216648e-05
2.8190764e-05
2.9162225e-05
3.013036e-05
3.1095116e-05
3.2055849e-05
3.3012177e-05
3.3963447e-05
3.4909071e-05
3.5848348e-05
3.6780632e-05
3.7705229e-05
3.8621475e-05
6.0011915e-05
5.6711948e-05
4.9895926e-05
3.9255271e-05
2.6692294e-05
1.471289e-05
6.0206077e-06
1.7578535e-06
5.7726548e-07
3.26444e-07
2.1070754e-07
1.6979628e-07
1.4900909e-07
1.3666911e-07
1.3001098e-07
1.2660431e-07
1.2574647e-07
1.2593907e-07
1.2729098e-07
1.296318e-07
1.333631e-07
1.3939562e-07
1.484924e-07
1.6016137e-07
1.7461155e-07
1.9233055e-07
2.1384242e-07
2.3987769e-07
2.7135827e-07
3.0946963e-07
3.5542536e-07
4.106885e-07
4.7673601e-07
5.5469599e-07
6.4489914e-07
7.4739325e-07
8.6545608e-07
1.0025607e-06
1.1644347e-06
1.3535571e-06
1.5652955e-06
1.7986507e-06
2.0571056e-06
2.3440682e-06
2.6619185e-06
3.010798e-06
3.391595e-06
3.8132268e-06
4.2730685e-06
4.7587581e-06
5.2607495e-06
5.7637997e-06
6.2519077e-06
6.6994926e-06
7.0854847e-06
7.3751602e-06
7.5603097e-06
7.6157721e-06
7.607536e-06
7.5825794e-06
7.9033252e-06
9.7472681e-06
1.1478855e-05
1.3051162e-05
1.4663033e-05
1.6146068e-05
1.7662029e-05
1.9083546e-05
2.0519832e-05
2.189696e-05
2.3275837e-05
2.4620724e-05
2.5961537e-05
2.7283193e-05
2.8599672e-05
2.9905342e-05
3.1206128e-05
3.2500434e-05
3.3790756e-05
3.5076287e-05
3.6358369e-05
3.7636156e-05
3.8910196e-05
4.0179707e-05
4.1444639e-05
4.2704211e-05
4.3957953e-05
4.5205049e-05
4.6444758e-05
4.7676196e-05
4.8898541e-05
5.0110915e-05
5.1312474e-05
7.3266311e-05
6.9685345e-05
6.1886394e-05
4.9182564e-05
3.3980113e-05
1.9200844e-05
8.1245241e-06
2.480865e-06
8.1734294e-07
4.5926305e-07
2.9529949e-07
2.3773154e-07
2.0864272e-07
1.9138103e-07
1.8206945e-07
1.7730925e-07
1.7613363e-07
1.7642982e-07