/*--------------------------------*- C++ -*----------------------------------*\
| =========                 |                                                 |
| \\      /  F ield         | OpenFOAM: The Open Source CFD Toolbox           |
|  \\    /   O peration     | Version:  2.4.0                                 |
|   \\  /    A nd           | Web:      www.OpenFOAM.org                      |
|    \\/     M anipulation  |                                                 |
\*---------------------------------------------------------------------------*/
FoamFile
{
    version     2.0;
    format      ascii;
    class       volScalarField;
    location    "300";
    object      omega;
}
// * * * * * * * * * * * * * * * * * * * * * * * * * * * * * * * * * * * * * //

dimensions      [0 0 -1 0 0 0 0];

internalField   nonuniform List<scalar> 
78300
(
288636.63
288686.54
288700.32
288833.65
289515.6
291432.02
295479.08
302673.02
314010.37
329813.04
346787.82
362441.63
375829.98
386411.76
393919.79
398343.7
399991.89
399060.36
395721.33
390174.45
382632.29
373308
362413.46
350675.33
339521.98
329123.31
319421.78
310364.21
301901.89
293992.53
286594.56
279672.29
273192.3
267123.9
261439.18
256109.32
250877.53
245350.68
239525.68
233441.11
227134.93
220644.17
214005.21
207254.37
200428.97
193566.99
186709.47
179903.22
173262.16
167044.3
161298.04
156019.07
151204.62
146855.25
142973.85
139564.67
136634.53
134192.24
132247.52
130811.23
129895.27
129511.99
129657.27
129783.85
129783.85
129783.85
129783.85
129783.85
129783.85
129783.85
129783.85
129783.85
129783.85
129783.85
129783.85
129783.85
129783.85
129783.85
129783.85
129783.85
129783.85
129783.85
129783.85
129783.85
129783.85
129783.85
129783.85
129783.85
129783.85
129783.85
129783.85
129783.85
129783.85
129783.85
129783.85
129783.85
129783.85
129783.85
129783.85
129783.85
129783.85
129783.85
129783.85
129783.85
129783.85
129783.85
129783.85
129783.85
129783.85
129783.85
129783.85
129783.85
129783.85
129783.85
129783.85
129783.85
129783.85
129783.85
129783.85
129783.85
129783.85
129783.85
129783.84
129783.85
129783.85
129783.85
129783.85
129783.84
129783.85
129783.85
129783.85
129783.85
129783.85
129783.85
129783.85
129783.85
129783.84
129783.85
129783.85
129783.84
129783.85
129783.85
129783.85
129783.85
129783.85
129783.84
129783.85
129783.85
129783.85
129783.85
129783.85
129783.85
129783.85
129783.85
129783.84
129783.85
129783.85
129783.85
129783.84
129783.85
129783.85
129783.84
129783.85
129783.85
129783.84
129783.85
129783.85
129783.84
129783.85
129783.85
129783.85
129783.85
129783.85
129783.85
129783.85
129783.84
129783.85
129783.85
129783.85
129783.85
129783.85
129783.85
129783.85
129783.85
129783.85
129783.85
129783.85
129783.85
129783.85
129783.85
129783.85
129783.85
129783.85
129783.85
129783.84
129783.85
129783.85
129783.84
129783.85
129783.85
129783.85
129783.85
129783.85
129783.84
129783.85
129783.85
129783.84
129657.28
129512.01
129895.29
130811.3
132247.51
134192.34
136634.64
139564.66
142973.98
146855.32
151204.67
156018.82
161297.58
167043.87
173262.27
179902.72
186708.73
193567.11
200429.65
207253.34
214004.32
220644.74
227134.83
233439.36
239524.17
245352.68
250877.69
256108.1
261440.2
267124.38
273191.44
279670.56
286594.59
293991.49
301901.54
310366.58
319421.44
329122.88
339524.32
350675.5
362412.85
373310.54
382630.44
390169
395719.63
399058.81
399990.08
398342.53
393921.8
386411.71
375828.88
362441.12
346790.01
329814.86
314010.09
302672.87
295479
291431.81
289515.62
288834.58
288701.22
288686.52
288636.63
58634.789
58827.497
57509.769
58651.908
40362.473
39316.019
39659.939
47438.307
49484.516
52042.858
54911.951
60188.052
58591.993
64184.93
65858.058
62671.179
58820.715
59070.81
56654.684
75700
73521.582
53151.659
53705.001
67033.961
61407.223
48368.101
45837.755
48125.134
52927.871
51172.126
43945.305
48503.816
40114.196
39135.275
39486.106
46881.929
45323.522
34961.765
36933.342
37207.351
32987.425
36518.955
43101.915
42371.135
40827.903
39539.313
38202.676
36711.194
23463.322
22589.302
32667.163
21238.071
30479.506
20075.942
28674.22
19126.074
18719.029
18995.389
24936.663
24675.889
24510.603
19056.538
17768.822
17749.538
17718.745
17693.62
17666.147
17661.015
17742.666
17735.393
17721.487
17704.317
17694.632
17687.62
17684.323
17682.018
17664.047
17537.041
17530.611
20928.772
26212.145
26308.616
26338.464
26373.88
26408.426
26404.297
26395.886
26382.503
26369.417
26364.561
26380.015
26395.939
21355.145
17666.788
17594.264
17545.001
17534.805
20977.378
26360.883
26331.324
26305.458
26265.239
26227.578
26179.644
26112.882
26054.206
26027.813
26012.573
26000.638
25984.088
25888.858
17807.703
17832.559
21958.612
21961.172
21960.897
21960.974
21961.253
21961.642
21961.698
21961.642
21961.68
21961.737
21961.699
21961.695
21961.753
21961.97
21961.84
21961.808
21961.708
21961.897
21961.7
21961.687
21961.622
21961.844
21961.714
21961.618
21961.441
21961.401
21961.16
21961.003
21960.847
21960.962
21960.821
21960.848
21961.161
21961.604
21961.662
21961.636
21961.505
21961.666
21961.564
21961.524
21961.239
21961.489
21960.412
19062.928
17986.949
17870.132
17819.336
17801.977
17801.358
17801.06
17801.161
17801.04
17801.486
17803.311
17831.4
25969.178
25981.279
25983.659
25985.41
25986.243
25982.691
25768.942
25767.295
25767.246
25749.443
21961.227
21908.482
24668.95
25890.312
25969.614
25917.25
25073.596
21966.536
21959.09
21957.87
21957.427
21953.051
21961.221
21961.675
21961.649
21959.743
21960.444
21960.305
21960.729
21960.654
21962.381
21962.275
21962.664
21960.957
21964.707
22026.623
23493.043
19005.174
20438.769
20436.005
21439.878
21586.953
24734.846
26428.229
26766.829
27257.172
27404.713
28046.72
20443.733
21338.144
21217.404
22121.989
24194.645
26147.965
34303.602
35727.541
39289.113
40307.603
33590.459
35035.985
36589.473
37838.441
39100.903
41393.507
46104.913
42276.616
42466.209
43366.658
44597.603
49948.314
43499.561
42603.337
44134.33
43887.974
49998.538
50926.271
50788.354
51465.162
52221.676
56539.222
57721.523
60865.323
62129.247
63088.404
63680.117
64437.984
62504.367
62173.564
60986.607
61517.738
60116.102
54880.263
49762.208
43117.872
47251.067
43788.867
42227
41999.123
41846.467
42697.542
41706.152
51079.786
28056.888
28401.665
26120.474
27955.762
9743.6504
8579.6569
8497.5808
13335.058
14162.558
14951.579
15963.134
22396.124
16409.293
23323.251
24997.918
17894.745
14706.964
14768.672
14385.969
32723.23
30211.026
14048.834
15380.821
28443.617
23684.325
13210.466
11226.355
13199.365
22561.719
21630.505
11626.431
20287.362
9556.9822
9261.3287
10106.178
21948.611
20507.237
7938.8156
10091.783
11239.968
8575.7585
13437.794
20210
20536.067
19593.09
19089.741
18504.425
17550.606
5205.8901
5009.5474
15319.161
4816.3214
14036.283
4670.1372
12814.145
4698.4596
4603.7501
5069.3569
9666.1295
9569.6441
9503.6903
5534.1891
4370.3514
4159.0249
4121.8814
4082.2921
4045.5946
4030.7838
4093.7846
4079.1769
4063.9147
4044.4203
4034.3464
4027.3916
4025.8046
4024.876
4004.934
3893.0752
3881.309
6897.0189
12224.708
12376.39
12421.874
12475.818
12526.737
12518.094
12500.54
12472.17
12443.37
12434.777
12474.2
12489.962
7415.8086
4017.8991
3961.8347
3901.8992
3885.9793
6963.5075
12428.041
12370.881
12322.471
12247.686
12173.011
12062.731
11889.966
11703.929
11641.143
11617.132
11597.881
11566.436
11343.105
4403.1033
4436.2306
7257.0302
7261.5707
7261.2622
7261.3607
7261.6618
7262.0895
7262.1624
7262.0861
7262.1375
7262.2102
7262.1526
7262.1511
7262.2266
7262.5158
7262.3287
7262.287
7262.1472
7262.4013
7262.1237
7262.1091
7262.0182
7262.3192
7262.1317
7262.0003
7261.7826
7261.7571
7261.4826
7261.3201
7261.1399
7261.247
7261.0953
7261.1388
7261.4583
7261.9813
7262.0534
7262.0195
7261.8371
7262.0598
7261.9082
7261.8556
7261.5314
7261.7743
7259.0682
5650.9569
4568.0086
4457.3485
4410.7436
4395.0851
4394.5581
4394.2477
4394.3267
4394.2487
4394.7363
4396.794
4434.3633
11549.126
11569.88
11573.275
11575.687
11576.723
11569.332
11248.09
11245.57
11245.092
11202.926
7259.8067
7191.396
9639.8142
11431.287
11557.306
11496.168
10543.355
7268.9179
7258.901
7257.3566
7256.754
7250.7112
7261.4101
7261.8209
7261.9928
7259.4613
7260.3645
7260.3218
7260.93
7260.924
7263.0437
7262.8598
7263.4235
7261.0441
7266.3909
7348.965
8413.5991
5451.1095
5848.5074
5862.096
6627.2039
6751.3075
9976.2429
11719.711
11816.89
12039.989
11676.745
11914.402
4896.8444
5293.4031
4779.7398
5097.6353
5813.5311
6953.6764
16635.044
17345.276
18558.615
18619.856
10177.47
12074.38
13425.862
14172.783
14855.532
16980.116
21207.036
16421.946
15725.721
16043.753
16661.043
19755.415
12187.938
10535.722
11167.558
10576.046
15574.1
16063.188
14538.65
13786.589
15082.594
16066.753
16980.881
18024.983
18424.464
18789.837
18925.524
19878.221
17717.353
17922.448
17575.889
20439.092
21144.594
16455.793
12862.584
9942.6594
13481.372
11150.326
10131.788
10075.054
9997.1857
10406.224
9915.9003
22422.308
20001.634
20414.337
17680.583
19757.278
3074.998
2355.5767
2181.3114
4805.1006
5294.7552
5623.2382
6124.6431
12221.657
5981.8095
12896.962
14058.055
6655.8515
4544.597
4528.6625
4898.5195
21093.599
18480.943
4591.7028
5625.8257
18126.68
13505.719
4562.3589
3510.1468
4791.0497
14808.744
13972.441
3833.1867
12931.774
2742.1865
2596.4909
3200.7585
15681.224
14024.805
2138.8778
3554.52
4482.3807
2973.0338
7211.9389
14063.234
14722.138
13895.829
13607.65
13208.943
12253.79
1472.7008
1439.6398
10500.787
1424.6972
9447.3728
1421.7474
8467.2706
1421.0023
1398.6394
1735.2844
5414.5737
5360.6478
5313.5622
2125.347
1332.0505
1265.6634
1246.2151
1225.5107
1204.1177
1196.0331
1234.1079
1225.4496
1215.7531
1203.6187
1197.0952
1192.4895
1190.9722
1190.0383
1178.4855
1115.8156
1114.3999
3135.0261
8333.4735
8511.6624
8563.8814
8625.881
8682.8807
8673.1183
8653.6916
8621.9137
8589.8698
8579.5478
8618.9253
8596.1422
3611.7697
1183.437
1149.3923
1119.911
1118.8366
3216.4304
8564.7254
8504.2019
8448.2205
8360.7852
8274.7641
8150.7278
7962.2567
7776.2454
7710.939
7682.6115
7658.7687
7612.8245
7243.9796
1351.2476
1380.4431
3341.4867
3347.2872
3346.9836
3347.0827
3347.3708
3347.7747
3347.8445
3347.7617
3347.8139
3347.8852
3347.8161
3347.8162
3347.8921
3348.192
3347.9799
3347.9363
3347.7818
3348.0467
3347.7398
3347.7254
3347.6243
3347.9411
3347.7295
3347.5874
3347.3628
3347.3496
3347.082
3346.9275
3346.75
3346.8491
3346.6984
3346.7468
3347.0354
3347.5561
3347.6227
3347.5856
3347.3848
3347.6234
3347.4492
3347.3939
3347.0706
3347.2486
3342.8142
2290.3706
1457.1621
1383.7388
1353.9405
1344.0986
1343.7786
1343.5696
1343.6244
1343.5763
1343.9238
1345.5678
1378.9026
7600.824
7628.7004
7632.618
7635.4856
7636.6094
7625.5395
7257.0232
7253.7493
7252.8022
7182.0984
3344.2533
3275.1718
5406.4875
7467.3239
7616.386
7552.5852
6595.7368
3355.4454
3344.3547
3342.7335
3342.1001
3335.6412
3346.8957
3347.2512
3347.5161
3344.8199
3345.7938
3345.8171
3346.4988
3346.5039
3348.6747
3348.4301
3349.059
3346.4813
3352.4192
3439.7307
4265.6459
2055.4296
2196.0144
2210.2295
2724.6194
2832.403
5918.629
7695.7656
7726.4205
7879.3587
7350.919
7453.3197
1560.38
1771.1203
1397.1706
1536.1877
1738.3999
2333.9294
12029.89
12533.302
12904.171
12485.252
4141.0542
5835.7146
7020.4468
7790.5761
8284.009
10509.833
14536.681
9615.2207
8536.3844
8640.2121
9036.7816
11639.989
4640.6432
3292.4234
3472.1583
3129.6619
6931.3201
6753.6611
5740.7195
4783.318
5648.9635
6171.9203
6912.0594
7395.331
7554.7195
7766.6047
7783.4717
8500.3541
6563.3704
6793.7657
6616.908
9598.0996
11377.964
6806.4815
4343.2629
2954.8237
5235.6271
3735.5567
3043.8169
2964.8221
2915.1681
3060.8136
2881.6717
15116.958
16781.639
17176.144
14323.566
16374.074
1073.2542
702.80871
636.4443
1962.6693
2331.0885
2494.1106
2749.088
8231.4118
2565.2622
8841.9253
9784.1562
2900.4461
1597.9047
1525.3343
1866.627
16630.872
13894.506
1629.3682
2304.1236
14209.297
9575.3887
1733.6723
1177.0587
1942.442
11890.447
10960.207
1455.5039
10033.936
859.42465
812.75237
1177.6514
13193.117
11321.855
642.15418
1478.8375
2077.4881
1156.7682
4792.6696
11548.629
12284.431
11504.922
11292.664
10948.277
9901.1514
460.00244
470.71488
8391.5074
481.09766
7449.2501
495.21515
6607.497
485.76148
483.13752
684.82607
3695.1986
3654.9951
3607.396
947.8466
462.75235
439.50239
429.84589
419.89609
409.2963
405.56236
425.33657
420.95679
415.82999
409.5133
406.08722
403.66061
402.77585
402.201
396.28778
365.80677
367.89545
1726.3066
6632.9075
6815.5338
6868.0083
6930.3163
6986.0734
6976.3112
6957.2328
6925.9234
6894.6381
6884.038
6917.0297
6844.4226
2102.1953
398.6491
381.10635
367.79263
371.35097
1820.3036
6862.8957
6807.6553
6751.1965
6663.0293
6576.8866
6454.5266
6272.8332
6103.3522
6041.9705
6012.6918
5986.3593
5927.0113
5421.2562
473.85038
495.25962
1850.6514
1857.1193
1856.8335
1856.9253
1857.1893
1857.5504
1857.6083
1857.5235
1857.5698
1857.6315
1857.5542
1857.5535
1857.6209
1857.903
1857.6815
1857.6371
1857.4793
1857.7297
1857.4175
1857.4018
1857.2977
1857.6007
1857.3812
1857.2387
1857.0221
1857.0147
1856.7639
1856.6211
1856.4546
1856.545
1856.3992
1856.4455
1856.6972
1857.1843
1857.2372
1857.1978
1856.9936
1857.2248
1857.0439
1856.9889
1856.6767
1856.7602
1850.6143
1108.9589
531.52191
489.99281
473.76719
468.49725
468.33057
468.21267
468.24793
468.21795
468.42408
469.53441
495.1274
5926.1141
5958.8594
5962.908
5966.041
5967.1509
5953.0814
5580.8946
5577.064
5575.5748
5477.0774
1853.0784
1790.3484
3673.4347
5793.2673
5947.201
5883.3296
4965.5743
1865.4162
1854.0235
1852.427
1851.8202
1845.5384
1856.4747
1856.7739
1857.0815
1854.4312
1855.4157
1855.459
1856.1594
1856.1507
1858.2407
1857.9481
1858.5809
1856.0372
1862.0698
1947.4627
2627.7398
898.09258
953.78295
965.12861
1300.7327
1390.4355
4267.059
5996.8394
6007.194
6131.8166
5562.5449
5586.7063
567.77798
678.24936
461.35936
522.64549
609.17348
892.43005
10084.25
10475.691
10514.432
9691.559
1984.7892
3397.9481
4451.8488
5277.1891
5626.0779
7938.6215
11750.852
7048.0042
5745.6763
5709.1775
6055.2651
8511.5405
2024.955
1104.0233
1236.0348
1053.9261
3641.7961
3298.3654
2648.6973
1968.6394
2402.3211
2672.3174
3225.794
3487.6016
3566.279
3711.9149
3707.3537
4435.0395
2887.7275
3051.2482
2862.4589
5523.7936
7519.5325
3272.4047
1631.2435
966.09729
2294.2476
1395.04
1030.9544
1002.3127
977.14351
1018.3719
967.73989
12266.495
14912.314
15246.205
12460.866
14340.087
404.80352
228.29637
204.86841
890.11745
1102.4214
1188.611
1371.3454
6236.0025
1181.8669
6875.09
7684.5654
1344.8239
583.65746
555.82413
757.91055
14382.296
11552.89
599.91345
1005.3356
12241.578
7630.4002
687.27578
414.63066
845.12049
10373.546
9330.3312
585.7873
8478.8117
286.31927
274.37451
468.84547
11710.518
9691.3798
212.22997
669.44023
1074.0252
488.7779
3643.5177
10064.341
10760.79
10027.941
9847.4706
9519.3333
8385.4798
161.9512
180.68789
7077.9932
188.67257
6226.1436
200.05173
5488.3995
188.76733
191.46178
305.05686
2806.1835
2770.1522
2716.0327
467.08798
185.24712
176.45556
171.76248
167.09059
162.06445
160.41369
170.1903
168.08133
165.52434
162.41054
160.71928
159.52282
159.06621
158.75377
155.82886
141.60995
144.43488
1091.3224
5584.2389
5758.365
5807.5573
5865.9215
5916.6504
5907.3851
5889.6135
5860.4656
5831.6157
5821.3867
5845.6936
5723.1261
1343.5147
157.15317
148.47008
142.62849
147.11612
1196.8911
5796.2837
5749.4354
5696.0823
5613.2824
5532.5395
5418.6108
5252.2212
5102.3524
5047.1559
5018.9087
4991.3648
4919.7877
4300.1487
191.77127
206.57156
1148.9309
1155.6011
1155.337
1155.4168
1155.6516
1155.9635
1156.0053
1155.9197
1155.9559
1156.0036
1155.9194
1155.9154
1155.9692
1156.2195
1155.9968
1155.9507
1155.7949
1156.0178
1155.7127
1155.6935
1155.5895
1155.8637
1155.645
1155.5065
1155.3042
1155.2983
1155.0664
1154.9358
1154.7829
1154.8637
1154.7233
1154.7642
1154.9787
1155.4179
1155.4541
1155.4119
1155.212
1155.4235
1155.2452
1155.191
1154.8933
1154.8614
1147.125
602.1183
220.71634
198.85269
190.57051
187.9178
187.83514
187.77284
187.79516
187.77499
187.88818
188.59533
208.26359
4933.5842
4969.0243
4972.9523
4976.2107
4977.2375
4960.9736
4611.1348
4606.9498
4604.8673
4482.4554
1150.7051
1097.6943
2772.5437
4810.5394
4958.2383
4895.8606
4041.3953
1163.6171
1152.366
1150.8446
1150.29
1144.4704
1154.673
1154.921
1155.241
1152.7422
1153.7029
1153.7418
1154.4291
1154.3977
1156.3447
1156.0167
1156.6188
1154.2276
1160.093
1240.5649
1817.3973
434.62298
458.02917
466.22811
682.31888
754.91869
3383.246
4996.6591
5003.197
5111.0809
4560.4596
4525.1439
234.38979
290.69509
174.11151
200.34833
237.38614
387.26849
8860.7647
9183.2154
9068.6865
7893.7294
1066.682
2211.088
3135.3702
4037.6602
4234.9431
6584.8233
10116.443
5811.7416
4383.0967
4261.6111
4575.7935
6949.5491
976.12621
389.90359
464.26761
375.9785
2114.9611
1758.779
1356.9089
881.70816
1100.2995
1235.9822
1624.4705
1782.1338
1827.4037
1933.6706
1927.1257
2560.0405
1389.5442
1480.0042
1363.3774
3477.9883
5596.1869
1752.1488
663.53297
340.55289
1071.5374
564.18098
378.00273
365.8655
353.16903
367.32212
352.91516
10682.371
13489.232
13746.324
11117.554
12764.912
168.37291
91.375392
84.160078
428.67652
550.37084
597.2017
727.61077
5058.1137
576.9002
5742.4271
6447.9268
647.03181
228.33042
219.46668
331.65779
12921.433
10052.255
235.86781
461.88266
10957.518
6451.3034
284.8582
163.09571
392.75168
9322.3606
8184.4524
253.80953
7401.028
110.90907
110.61934
210.95185
10548.045
8434.715
87.306966
327.42932
586.80044
226.29231
3016.1352
8932.8078
9547.929
8866.316
8703.059
8380.0459
7180.3746
72.777776
91.194909
6064.7131
93.791142
5300.6024
100.00327
4653.0448
88.500436
92.186577
156.38496
2256.3247
2220.9363
2158.901
250.90882
90.288013
86.719638
84.47075
82.320863
80.02266
79.316749
83.958172
82.979416
81.757451
80.289484
79.497351
78.940507
78.724527
78.570144
77.195567
70.956579
73.561605
773.2154
4787.3825
4946.5809
4990.9493
5043.4889
5087.7314
5079.1668
5063.0772
5036.7501
5010.9392
5001.2518
5016.1654
4848.5504
898.4244
78.002836
73.897013
71.479079
75.718454
889.76706
4974.2818
4936.2976
4887.6003
4812.8161
4739.836
4637.0207
4488.8603
4358.5176
4310.1913
4283.9191
4255.7899
4172.981
3467.348
94.282132
104.66989
770.09795
776.62189
776.3791
776.44368
776.64627
776.90774
776.93166
776.84474
776.86807
776.89964
776.80886
776.79924
776.83642
777.04846
776.82877
776.77945
776.62752
776.81659
776.52499
776.50019
776.39706
776.63543
776.42189
776.28933
776.10354
776.0962
775.88301
775.76386
775.6246
775.69444
775.55939
775.59276
775.77152
776.15682
776.17546
776.1297
775.93839
776.12387
775.95352
775.90002
775.61811
775.4562
766.33228
355.25891
108.29327
96.925381
92.772256
91.467428
91.427067
91.394413
91.407978
91.39412
91.454256
91.898745
108.16819
4203.2774
4239.6628
4243.3341
4246.6265
4247.5345
4229.8124
3914.5938
3910.2278
3907.5372
3766.3059
770.99305
729.06119
2218.1048
4093.8891
4229.8414
4169.8611
3389.6077
784.0682
773.24134
771.82171
771.3292
766.09893
775.37868
775.58239
775.896
773.60116
774.51695
774.54153
775.1963
775.14065
776.9148
776.56337
777.11524
774.93585
780.4929
854.69583
1349.0203
230.95168
241.14806
246.8129
385.10177
443.41953
2805.3682
4264.2113
4272.9043
4367.7188
3863.0226
3779.0364
113.64786
142.11648
82.492604
92.863224
108.44363
201.8161
7895.9204
8163.1694
7967.3711
6524.7311
621.84671
1544.9172
2331.9478
3314.7886
3351.895
5688.318
8892.8618
5078.212
3599.8025
3422.8922
3696.301
5980.3886
519.81116
155.22343
191.59156
150.19797
1311.7457
995.3571
757.57725
425.7413
532.54886
597.59767
860.3367
961.45713
989.36632
1068.2068
1065.1794
1578.9631
724.17478
761.11297
679.13143
2280.984
4452.7161
1037.5618
294.55359
137.63145
523.96198
249.35398
155.5479
149.57721
143.31515
147.92513
145.31109
9531.4147
12254.226
12433.395
9990.0208
11396.716
83.137743
51.742674
50.12297
221.79661
290.53671
316.1876
409.44592
4264.8145
300.02367
4986.1761
5599.7447
320.54712
102.74124
101.49168
164.96287
11772.851
8908.8589
105.99737
229.88152
9943.3677
5607.9711
129.25475
79.194025
201.53155
8452.1923
7242.3643
125.85011
6524.8374
56.511172
60.070302
115.76676
9521.7431
7352.0119
50.403839
175.96798
336.19752
120.65997
2631.2326
7959.4728
8484.098
7855.6232
7704.8493
7384.1626
6139.4383
45.591472
63.14004
5206.176
62.425758
4527.253
65.223722
3961.1128
53.666577
57.255735
94.808657
1869.1118
1833.2295
1763.8649
147.48857
56.507235
54.925273
53.869773
52.906812
51.888778
51.590409
53.717792
53.286486
52.727087
52.061559
51.70584
51.458246
51.362846
51.293122
50.676815
48.029524
50.406962
604.5395
4120.8585
4262.8303
4302.0428
4348.3119
4385.9609
4378.1437
4363.7993
4340.4028
4317.6765
4308.4305
4313.9604
4107.9351
610.89234
51.21779
49.282631
48.317683
52.40601
731.08695
4281.2372
4251.3636
4207.6877
4141.5816
4076.9442
3985.7689
3856.0621
3743.9976
3702.4557
3678.4781
3649.9916
3556.8193
2793.5397
59.035285
66.453196
545.27102
551.40292
551.17867
551.22569
551.39449
551.6063
551.61129
551.52155
551.5303
551.54444
551.44693
551.42939
551.44794
551.61945
551.40456
551.35043
551.20268
551.3556
551.0801
551.04793
550.94558
551.14539
550.93943
550.81333
550.64441
550.63433
550.43887
550.33011
550.20344
550.26182
550.13142
550.15579
550.29953
550.62907
550.63038
550.58036
550.39927
550.55544
550.39725
550.34456
550.07953
549.77879
539.53099
224.29653
65.332249
59.569319
57.554923
56.935645
56.9164
56.899009
56.906304
56.897367
56.927475
57.198502
71.676695
3604.1426
3640.1803
3643.5337
3646.8029
3647.5815
3629.0253
3352.4523
3348.0528
3344.7904
3190.1057
545.18252
514.50923
1832.5815
3509.2258
3631.3396
3574.2662
2871.0842
558.0649
547.8565
546.55017
546.12331
541.52361
549.81779
549.98449
550.27915
548.21078
549.06913
549.07841
549.68861
549.61097
551.19849
550.83156
551.32023
549.38028
554.55779
621.97732
1045.9506
135.87024
140.42852
144.2802
232.70151
279.99443
2373.6844
3664.3521
3676.8622
3760.0022
3311.4717
3187.8139
67.880018
82.007314
52.57634
56.201572
62.755091
132.90586
7061.7482
7283.8272
7041.269
5426.4487
380.57789
1133.2443
1780.3554
2833.0456
2712.2297
4992.7751
7857.8107
4559.9114
3093.524
2872.4274
3094.07
5268.162
311.00748
77.434039
93.782155
73.635601
851.92331
590.76689
458.73737
225.95119
274.66643
303.2172
475.07095
542.47913
559.72397
618.468
619.19938
1021.0033
410.14107
414.14421
352.03225
1516.2157
3660.9651
687.78122
149.03383
71.052286
269.5582
125.13379
79.155474
75.786554
72.679194
74.007055
74.428392
8559.4721
11130.516
11236.801
8979.7664
10161.218
52.212251
40.109072
40.353826
126.15134
164.34296
178.29847
246.26213
3673.0703
170.59401
4415.2551
4944.3097
166.19022
57.930152
59.66342
98.979921
10768.205
7941.1866
59.232574
129.87838
9055.7678
4930.4633
68.611136
50.860481
119.70273
7672.0513
6410.7563
75.944201
5756.3598
39.36408
44.233662
80.422072
8579.8097
6381.6085
39.308996
107.35929
202.4159
77.811569
2367.1079
7084.7191
7522.264
6946.8772
6807.0453
6488.4465
5217.1916
37.167762
54.497336
4455.0461
52.015579
3856.9497
52.996705
3364.5107
41.159611
44.570945
68.105657
1571.5219
1535.0638
1459.8359
95.727154
44.087567
43.281363
42.779366
42.350722
41.901939
41.771724
42.747614
42.567725
42.316147
42.017398
41.859837
41.752075
41.712309
41.684271
41.416977
40.298164
42.716982
512.88273
3543.0605
3667.6312
3701.9191
3742.135
3773.6789
3766.583
3753.9079
3733.3057
3713.4738
3704.4529
3700.9096
3463.5357
415.12964
41.830617
40.859901
40.485934
44.89495
647.50744
3678.2661
3655.3332
3616.4885
3558.7914
3502.2295
3422.2118
3309.9566
3214.4744
3179.2541
3157.5449
3128.7065
3026.015
2231.6405
45.812605
51.416868
402.34051
407.92266
407.71263
407.74053
407.87454
408.03859
408.02398
407.93002
407.92295
407.91902
407.81447
407.78699
407.78585
407.91714
407.70738
407.64723
407.50303
407.61992
407.36126
407.32045
407.21819
407.37962
407.18232
407.06277
406.91006
406.89675
406.71774
406.6183
406.50265
406.5495
406.42275
406.43701
406.54643
406.82105
406.80586
406.75111
406.58071
406.70659
406.56361
406.51208
406.26484
405.82418
394.75405
150.53642
48.275843
45.4086
44.441971
44.15091
44.141438
44.131378
44.134662
44.128756
44.142861
44.31424
58.279869
3090.0479
3124.843
3127.8623
3131.0731
3131.7258
3112.8414
2874.3296
2870.0215
2866.2571
2703.1827
401.292
381.33142
1540.6672
3008.842
3116.9583
3063.0549
2435.1449
413.64755
404.18923
402.99974
402.63833
398.66193
405.97716
406.11398
406.38146
404.54484
405.33852
405.33607
405.89464
405.79867
407.19552
406.81903
407.23706
405.54502
410.3127
470.88455
833.01219
89.430155
91.515853
94.144636
150.86188
190.11491
2025.1512
3149.4773
3165.6029
3238.0459
2846.7277
2691.7859
49.919553
56.879473
42.490991
43.338117
46.117237
107.56292
6317.0169
6503.993
6236.0527
4519.6699
235.02396
861.07701
1374.5295
2477.081
2212.5157
4404.5181
6940.796
4138.7218
2733.7071
2474.058
2636.8402
4688.5319
213.28307
51.361057
57.985252
47.121974
572.26201
366.56853
300.96558
135.83602
155.83196
166.81187
274.24391
320.27899
330.36132
374.20338
377.29945
684.7264
255.23801
240.46412
191.95681
1003.4066
3055.032
512.34791
90.748586
48.615943
148.65477
75.407219
52.712202
50.52887
48.838968
49.025743
49.909035
7686.0023
10093.288
10134.287
8054.3066
9033.2871
40.800606
36.625374
37.483336
81.000548
101.51219
109.02262
160.27394
3198.0433
109.82096
3942.9655
4394.7559
93.064654
41.794226
44.695615
72.763738
9846.2228
7077.6202
42.240518
86.346402
8243.4948
4347.4739
44.733288
41.198508
84.369616
6951.9008
5656.5524
56.25062
5061.7565
33.859158
39.242358
67.718252
7706.6707
5508.8013
35.91266
75.737293
129.06316
60.633014
2165.1209
6288.9498
6646.0225
6123.1756
5993.6855
5677.6731
4402.5286
34.564873
52.244008
3792.9012
48.740166
3270.098
48.791548
2843.9573
36.450352
39.771735
56.137999
1330.1104
1293.4156
1214.151
68.820433
39.320176
38.826076
38.576614
38.386197
38.187317
38.126263
38.586567
38.520507
38.409175
38.275087
38.206049
38.160567
38.146096
38.138521
38.029617
37.555179
40.319521
462.70889
3036.7865
3144.7425
3174.5396
3209.1681
3235.3028
3228.8692
3217.7318
3199.6938
3182.4744
3173.4241
3161.2361
2899.6172
279.05773
38.387728
37.837615
37.707333
42.958555
602.42271
3149.1951
3131.8208
3097.4798
3047.5467
2998.4411
2928.6902
2832.4045
2751.6911
2722.1537
2702.4975
2673.2013
2562.0223
1760.7781
40.616279
45.227409
306.61336
311.56027
311.35911
311.36687
311.46565
311.58449
311.54998
311.45049
311.42693
311.4048
311.29293
311.25395
311.23281
311.32585
311.12082
311.05397
310.91232
310.99496
310.75287
310.70275
310.59972
310.72477
310.5366
310.42358
310.28592
310.26941
310.10545
310.01434
309.90791
309.94357
309.81927
309.82271
309.89868
310.12089
310.09041
310.03084
309.87105
309.96736
309.84181
309.792
309.56426
308.99013
297.41857
107.16137
41.234343
39.814704
39.345888
39.207383
39.202199
39.195591
39.196405
39.19195
39.19778
39.319987
53.669112
2642.0031
2674.951
2677.6442
2680.7716
2681.3061
2662.5061
2459.296
2455.1815
2450.9844
2283.9982
304.74019
294.49709
1306.8468
2573.1082
2667.9812
2617.3575
2060.6025
316.25117
307.62503
306.55146
306.25317
302.86542
309.24733
309.36073
309.59593
307.98602
308.71136
308.70289
309.20618
309.09602
310.30428
309.92279
310.26705
308.8195
313.17199
367.08797
674.35389
65.844916
66.824421
68.654997
105.26414
138.89722
1732.0134
2700.1962
2719.0711
2781.6932
2444.2418
2265.9072
42.544637
46.075198
38.948481
38.663099
39.836226
101.35169
5646.7373
5804.0644
5525.9789
3757.588
139.00673
672.05213
1066.2842
2193.9617
1806.7926
3886.4315
6113.9198
3764.9424
2457.4608
2163.7365
2265.5862
4190.2162
168.00976
42.531529
44.582171
37.700499
394.277
238.01801
213.55682
93.859763
100.24838
103.58626
168.14989
199.64077
204.76711
237.27442
241.30665
473.41361
176.10855
151.58531
113.37018
655.13029
2561.1632
423.26167
67.412164
40.749364
90.610217
55.236441
43.416041
41.805967
40.717878
40.487586
41.188662
6884.4587
9132.8148
9117.1154
7201.617
8003.2247
36.465609
35.553708
36.612058
59.435949
69.723227
73.764912
114.05573
2797.766
81.311048
3528.8248
3910.7525
58.257412
35.940271
39.319322
62.546968
8984.3084
6294.4055
36.020316
67.287019
7487.7892
3827.6439
35.222709
37.906608
69.187402
6281.3848
4971.463
48.444145
4427.9641
32.054803
37.710281
63.964941
6896.8245
4723.6916
34.852412
60.871969
88.137349
54.280641
1995.243
5564.0724
5848.0223
5376.7535
5256.8056
4944.8885
3685.9821
33.73771
52.200851
3210.1058
47.977893
2756.5184
47.533027
2389.5709
34.551
37.85544
50.695186
1128.1143
1091.6723
1010.2708
54.310731
37.377341
37.014069
36.881484
36.799331
36.711913
36.680269
36.908449
36.89479
36.848322
36.78923
36.760488
36.743377
36.740887
36.743964
36.708137
36.512296
39.928372
434.71348
2592.6707
2685.2281
2711.005
2740.5815
2762.0466
2756.2027
2746.4541
2730.7184
2715.7647
2706.474
2686.1881
2407.2517
184.60805
37.046401
36.680948
36.662484
43.286634
575.7
2684.9045
2671.8473
2641.6074
2598.6701
2556.2841
2495.7735
2413.8366
2346.1028
2321.5523
2303.6483
2273.7593
2155.3925
1369.0135
38.441471
42.577321
239.82058
244.10333
243.90495
243.89207
243.95576
244.0322
243.97792
243.87179
243.83166
243.79161
243.67234
243.62087
243.58011
243.63808
243.43696
243.36345
243.22332
243.27467
243.04842
242.989
242.88438
242.97638
242.79751
242.69111
242.56718
242.54788
242.39757
242.31396
242.2149
242.24001
242.1168
242.10904
242.15278
242.32619
242.28195
242.21788
242.06835
242.13713
242.03066
241.98372
241.77752
241.08448
229.33522
80.819714
38.1775
37.477022
37.244538
37.176979
37.173596
37.16853
37.167758
37.163805
37.165324
37.270075
52.574622
2250.1594
2280.8654
2283.2519
2286.2777
2286.7017
2268.3283
2096.8216
2092.9694
2088.3962
1921.3269
237.33843
235.5553
1112.8737
2192.0095
2274.7643
2227.4333
1736.7274
247.71506
239.96215
239.00093
238.7622
235.91374
241.42937
241.52499
241.72509
240.33066
240.98651
240.97842
241.42522
241.30491
242.33066
241.94774
242.21828
241.00448
244.95197
292.5533
551.26825
53.394307
53.871508
55.189114
79.014201
108.84664
1480.5288
2306.6616
2327.2393
2380.9159
2092.2011
1897.818
39.309059
41.266049
37.629748
36.886946
37.360505
104.52553
5043.4034
5172.7155
4894.8833
3119.3159
71.698255
535.78311
830.05131
1956.6597
1472.7475
3421.1721
5363.5531
3418.8752
2231.3487
1909.048
1952.5125
3746.9058
148.65536
39.52862
39.448412
34.236679
277.03828
162.13684
162.97845