/*--------------------------------*- C++ -*----------------------------------*\
| =========                 |                                                 |
| \\      /  F ield         | OpenFOAM: The Open Source CFD Toolbox           |
|  \\    /   O peration     | Version:  2.4.0                                 |
|   \\  /    A nd           | Web:      www.OpenFOAM.org                      |
|    \\/     M anipulation  |                                                 |
\*---------------------------------------------------------------------------*/
FoamFile
{
    version     2.0;
    format      ascii;
    class       volScalarField;
    location    "300";
    object      p;
}
// * * * * * * * * * * * * * * * * * * * * * * * * * * * * * * * * * * * * * //

dimensions      [0 2 -2 0 0 0 0];

internalField   nonuniform List<scalar> 
78300
(
-6.2948192
-5.5916619
-5.2337426
-4.816711
-4.3067548
-3.7405156
-3.1790188
-2.7481977
-2.3529509
-2.0822914
-1.9631898
-1.9197911
-1.5419803
-2.1020874
-3.0173921
-1.4101556
-0.50214329
-1.2264645
-1.2983091
-1.2445015
-1.2187798
-1.2037965
-1.1876266
-1.1653347
-1.1537024
-1.1415889
-1.1241966
-1.1161795
-1.0771992
-1.0634222
-1.0101423
-0.97136441
-0.90966882
-0.84102548
-0.76014937
-0.67545166
-0.60779202
-0.53761372
-0.43398222
-0.19684976
-6.8418396e-10
-0.89609752
-0.77028204
-0.82202816
-0.82299964
-0.89073763
-0.89531587
-0.91161379
-0.9042652
-0.9054569
-0.90494608
-0.90792449
-0.91512689
-0.92239188
-0.92908415
-0.93469158
-0.94060907
-0.94652172
-0.95242179
-0.95785638
-0.96279846
-0.96826275
-0.97388903
-0.98129164
-0.98970832
-0.99868635
-1.0076108
-1.0167634
-1.0257262
-1.0341308
-1.0415676
-1.0480818
-1.0536775
-1.0581798
-1.0616598
-1.0632106
-1.063746
-1.0630541
-1.0614976
-1.0575935
-1.0524085
-1.045919
-1.0393347
-1.0310471
-1.0227872
-1.0147554
-1.0079513
-1.0008349
-0.99440408
-0.98873337
-0.9840462
-0.978454
-0.97133635
-0.9617097
-0.95042869
-0.9366862
-0.92268023
-0.9084568
-0.89729626
-0.88748
-0.88116591
-0.87755791
-0.87709048
-0.87860242
-0.88113979
-0.8852581
-0.89019321
-0.89691758
-0.90389085
-0.91138107
-0.91742249
-0.92234533
-0.92648365
-0.9326454
-0.93835192
-0.94248299
-0.94487115
-0.94616255
-0.94584303
-0.94406309
-0.94124718
-0.93848596
-0.93550422
-0.93135847
-0.92701942
-0.9232546
-0.92068974
-0.91854458
-0.91820904
-0.92035921
-0.92430953
-0.9289181
-0.93496153
-0.94407665
-0.95560912
-0.9691826
-0.98484424
-1.0034329
-1.022416
-1.0389303
-1.0525084
-1.0642102
-1.0739958
-1.0785692
-1.0786343
-1.0759745
-1.0760152
-1.0803023
-1.0876757
-1.0981088
-1.1152134
-1.1451795
-1.1802518
-1.2167781
-1.2494043
-1.2842405
-1.3137515
-1.3405964
-1.3657203
-1.3978465
-1.434476
-1.4756898
-1.5145579
-1.5584874
-1.6185651
-1.688082
-1.7544803
-1.8181048
-1.8726354
-1.9299587
-1.9820222
-2.0197365
-2.0301204
-2.0055458
-1.9436403
-1.8439797
-1.7179697
-1.5509472
-1.3446419
-1.1038365
-0.89591512
-0.7218743
-0.58612943
-0.44589077
-0.31075116
-0.17433594
-0.086341677
-0.02709705
-0.0105293
-0.035117838
-0.093622252
-0.1511158
-0.1969523
-0.24450293
-0.29824115
-0.353541
-0.40011422
-0.44049218
-0.47639779
-0.51332514
-0.56362293
-0.64949436
-0.76044687
-0.88825503
-0.99143187
-1.0655965
-1.106406
-1.1347547
-1.1470453
-1.1479009
-1.1436648
-1.1323204
-1.1239192
-1.0981038
-1.0735969
-1.0659538
-1.102344
-1.1473986
-1.2481135
-1.4666253
-1.6675256
-1.7645275
-1.4983615
0.76844858
4.5334786
10.542689
17.04244
16.198895
16.958451
11.928715
9.446493
2.3923499
-3.198786
-8.9624534
-14.15293
-18.57399
-22.544101
-27.540093
-30.933029
-28.820038
-28.173975
-25.818034
-24.734491
-18.507426
-13.71627
1.4916616
14.912362
24.706008
31.577447
34.455956
30.468805
22.702885
16.665258
22.067787
33.715547
47.182812
52.729828
49.110578
31.804512
16.074394
5.9415272
1.1491278
-1.955251
-4.7947913
-6.404154
-6.8417001
-6.9143686
-6.9621343
-7.0724796
-6.8566872
-6.2944105
-5.5918065
-5.2337069
-4.8166985
-4.3068586
-3.7406782
-3.1795105
-2.7485554
-2.3534229
-2.0827683
-1.9634109
-1.9188076
-1.5438511
-2.1024823
-3.00901
-1.4100643
-0.50770691
-1.2262429
-1.2980276
-1.244508
-1.2187901
-1.2038074
-1.1876378
-1.1653558
-1.153694
-1.141565
-1.1241834
-1.1161064
-1.077272
-1.0633763
-1.0102669
-0.97144177
-0.90980335
-0.84120452
-0.76040284
-0.67576083
-0.60806638
-0.53792169
-0.43429718
-0.19855991
-0.0068701767
-0.89359853
-0.77026027
-0.82166737
-0.82301298
-0.89042991
-0.89529523
-0.91150728
-0.90427366
-0.90546203
-0.9049599
-0.9079324
-0.91512392
-0.92238856
-0.92908097
-0.93469021
-0.94060651
-0.94651899
-0.95241874
-0.9578527
-0.96279834
-0.96825937
-0.97388976
-0.98128905
-0.98970624
-0.99868234
-1.0076083
-1.0167592
-1.0257221
-1.0341259
-1.0415643
-1.0480774
-1.0536726
-1.0581756
-1.061654
-1.0632064
-1.0637407
-1.063051
-1.0614911
-1.05759
-1.052404
-1.0459186
-1.0393306
-1.031047
-1.022786
-1.0147582
-1.0079509
-1.0008372
-0.99440564
-0.98873695
-0.98404745
-0.97845595
-0.971335
-0.96171012
-0.95042638
-0.93668874
-0.92267865
-0.90846218
-0.89729858
-0.88748703
-0.88117041
-0.87756365
-0.877096
-0.87860549
-0.8811456
-0.88525992
-0.89019852
-0.89691741
-0.90389356
-0.91137939
-0.9174252
-0.92234254
-0.9264793
-0.93263941
-0.93835032
-0.94247885
-0.94486801
-0.94615718
-0.94584084
-0.94405944
-0.9412441
-0.93848289
-0.93550134
-0.93135674
-0.92701684
-0.92325418
-0.9206885
-0.9185452
-0.91820946
-0.9203599
-0.92431135
-0.92891861
-0.93496301
-0.94407616
-0.95561253
-0.9691819
-0.98484613
-1.0034287
-1.0224171
-1.0389254
-1.0525056
-1.0642044
-1.0739914
-1.078565
-1.0786285
-1.0759721
-1.0760135
-1.0803017
-1.087675
-1.0981079
-1.1152165
-1.1451745
-1.1802538
-1.2167695
-1.2494079
-1.2842315
-1.313749
-1.3405837
-1.3657161
-1.3978322
-1.4344673
-1.4756651
-1.5145486
-1.55849
-1.6185479
-1.688043
-1.7544429
-1.8180504
-1.8726031
-1.9299107
-1.9819721
-2.0196729
-2.0300495
-2.0054844
-1.9435727
-1.8439479
-1.7179219
-1.5509494
-1.3446009
-1.1038671
-0.89590771
-0.72193264
-0.58614789
-0.44597097
-0.31079711
-0.17442975
-0.086399657
-0.02717653
-0.010591141
-0.035169588
-0.093655803
-0.15113799
-0.19698285
-0.24452222
-0.29826303
-0.35355025
-0.40013157
-0.44050943
-0.47641757
-0.51334387
-0.56365303
-0.6494805
-0.76045587
-0.88819635
-0.99141995
-1.0655308
-1.1063758
-1.1347129
-1.1470144
-1.1478743
-1.1435978
-1.132285
-1.1238327
-1.0980178
-1.0734264
-1.0658675
-1.1022839
-1.1473463
-1.2483298
-1.4673476
-1.6689042
-1.7656873
-1.4957614
0.76934016
4.5378096
10.543358
17.040825
16.196726
16.947587
11.924386
9.4286606
2.3869067
-3.2076102
-8.9695079
-14.159021
-18.577895
-22.546514
-27.538193
-30.926239
-28.811063
-28.162043
-25.813131
-24.710143
-18.495581
-13.667677
1.5057153
14.930538
24.710255
31.570919
34.436681
30.44271
22.682979
16.671132
22.084427
33.730821
47.188414
52.705128
49.041121
31.788243
16.060985
5.9397491
1.1486952
-1.9572203
-4.7959742
-6.4039032
-6.841363
-6.9143857
-6.9622128
-7.0721004
-6.8566631
-6.2937633
-5.5920539
-5.2336493
-4.8166733
-4.3070251
-3.7409367
-3.180308
-2.749135
-2.3541954
-2.0835378
-1.9637572
-1.9171882
-1.5468603
-2.1031129
-2.9954508
-1.4099167
-0.51671165
-1.2258949
-1.2975705
-1.244513
-1.2188037
-1.2038232
-1.1876573
-1.1653919
-1.1536831
-1.1415296
-1.1241653
-1.1159917
-1.0773932
-1.0633072
-1.0104733
-0.97157304
-0.91002786
-0.84150188
-0.76082184
-0.67627114
-0.60852029
-0.53842942
-0.43482998
-0.20138031
-0.017722601
-0.88956529
-0.77020748
-0.8210824
-0.82302901
-0.88992965
-0.89525807
-0.91133363
-0.90428552
-0.90546946
-0.90498138
-0.90794411
-0.91511813
-0.92238238
-0.9290752
-0.93468755
-0.94060202
-0.9465144
-0.95241369
-0.95784673
-0.96279812
-0.968254
-0.97389133
-0.9812854
-0.98970329
-0.99867627
-1.0076046
-1.0167528
-1.0257158
-1.0341185
-1.0415593
-1.0480707
-1.0536649
-1.0581692
-1.0616451
-1.0631999
-1.0637325
-1.0630464
-1.0614811
-1.0575847
-1.0523972
-1.0459181
-1.0393244
-1.0310471
-1.0227845
-1.0147629
-1.0079506
-1.0008412
-0.99440848
-0.98874303
-0.98404982
-0.97845943
-0.97133319
-0.96171118
-0.95042312
-0.93669329
-0.92267662
-0.90847128
-0.89730274
-0.88749873
-0.88117802
-0.8775733
-0.87710529
-0.87861085
-0.88115536
-0.88526326
-0.89020742
-0.89691743
-0.90389818
-0.91137695
-0.91742979
-0.92233821
-0.92647245
-0.93262997
-0.93834787
-0.94247225
-0.94486294
-0.94614859
-0.94583739
-0.94405363
-0.94123914
-0.93847798
-0.93549673
-0.93135396
-0.92701266
-0.92325349
-0.92068652
-0.91854614
-0.91821005
-0.92036094
-0.92431423
-0.92891932
-0.93496519
-0.9440752
-0.95561789
-0.96918056
-0.98484891
-1.0034216
-1.0224187
-1.0389173
-1.0525009
-1.0641948
-1.0739841
-1.0785579
-1.0786186
-1.0759679
-1.0760102
-1.0803003
-1.0876735
-1.0981059
-1.1152208
-1.1451659
-1.1802566
-1.2167555
-1.2494134
-1.284217
-1.3137447
-1.3405626
-1.3657085
-1.3978084
-1.4344523
-1.4756242
-1.5145329
-1.5584934
-1.618519
-1.6879788
-1.7543811
-1.8179616
-1.8725497
-1.9298321
-1.9818902
-2.0195695
-2.0299346
-2.0053849
-1.9434634
-1.8438964
-1.7178458
-1.5509546
-1.3445354
-1.103914
-0.89589341
-0.72202559
-0.58617827
-0.44610162
-0.31087308
-0.17458077
-0.086492915
-0.02730401
-0.010690262
-0.035252543
-0.093710633
-0.15117478
-0.19703276
-0.24455368
-0.2982988
-0.3535658
-0.40016002
-0.4405376
-0.47644982
-0.51337421
-0.563701
-0.6494576
-0.76047013
-0.88810223
-0.99140189
-1.065425
-1.1063266
-1.134645
-1.1469641
-1.1478309
-1.1434894
-1.1322277
-1.1236937
-1.0978794
-1.0731505
-1.0657254
-1.1021858
-1.1472622
-1.2486891
-1.4685283
-1.6711485
-1.7675674
-1.4916635
0.77064654
4.5446342
10.544294
17.038468
16.193124
16.930276
11.917225
9.3998501
2.3777968
-3.2220564
-8.9811104
-14.169042
-18.584329
-22.5505
-27.535363
-30.915656
-28.796406
-28.142688
-25.805051
-24.67065
-18.475949
-13.588705
1.5294506
14.96069
24.717594
31.560547
34.405568
30.400282
22.650506
16.680573
22.111572
33.75577
47.197585
52.664697
48.928086
31.760886
16.039352
5.936797
1.1478261
-1.9604999
-4.7979256
-6.403553
-6.8408687
-6.9144377
-6.9623524
-7.0714829
-6.8566248
-6.2928459
-5.5924388
-5.2335653
-4.8166282
-4.3072615
-3.7413033
-3.1814637
-2.7499729
-2.3553216
-2.0846515
-1.9642436
-1.9147947
-1.5512126
-2.1040688
-2.9758284
-1.4096675
-0.52974083
-1.2254137
-1.2969074
-1.2445132
-1.2188198
-1.2038436
-1.1876853
-1.1654452
-1.1536689
-1.1414804
-1.1241415
-1.1158273
-1.0775705
-1.0632105
-1.0107747
-0.97176619
-0.91035675
-0.841937
-0.7614338
-0.67701737
-0.60918629
-0.53917224
-0.43562084
-0.20551122
-0.033014097
-0.88375311
-0.77011108
-0.82023892
-0.8230505
-0.88920747
-0.89520099
-0.91108186
-0.90430107
-0.90547961
-0.90501194
-0.90796054
-0.91510928
-0.92237307
-0.92906655
-0.93468354
-0.94059541
-0.94650772
-0.95240635
-0.95783814
-0.9627978
-0.96824633
-0.97389406
-0.98128074
-0.98969948
-0.99866792
-1.0075996
-1.016744
-1.025707
-1.034108
-1.0415523
-1.0480612
-1.0536541
-1.0581602
-1.0616323
-1.0631907
-1.063721
-1.06304
-1.0614669
-1.0575773
-1.0523877
-1.0459178
-1.0393158
-1.0310476
-1.0227827
-1.0147701
-1.0079505
-1.0008473
-0.99441294
-0.98875214
-0.98405354
-0.97846467
-0.97133082
-0.96171302
-0.95041887
-0.93670035
-0.92267434
-0.90848502
-0.89730932
-0.88751616
-0.88118954
-0.87758777
-0.87711916
-0.8786191
-0.88116988
-0.88526856
-0.8902206
-0.89691776
-0.90390501
-0.91137362
-0.91743638
-0.92233194
-0.92646273
-0.93261655
-0.93834423
-0.94246262
-0.94485544
-0.94613614
-0.94583236
-0.94404524
-0.94123198
-0.9384709
-0.93549008
-0.93134993
-0.92700666
-0.92325257
-0.92068374
-0.91854755
-0.91821095
-0.92036249
-0.92431841
-0.92892031
-0.93496827
-0.9440738
-0.95562556
-0.96917853
-0.98485271
-1.0034112
-1.0224207
-1.0389052
-1.0524934
-1.0641804
-1.0739729
-1.078547
-1.0786038
-1.0759612
-1.0760051
-1.0802979
-1.0876708
-1.0981027
-1.1152267
-1.1451533
-1.18026
-1.2167347
-1.249421
-1.2841958
-1.3137377
-1.3405315
-1.3656969
-1.3977733
-1.4344298
-1.4755642
-1.5145095
-1.5584979
-1.6184765
-1.6878845
-1.7542896
-1.8178316
-1.872471
-1.9297169
-1.9817701
-2.019418
-2.0297664
-2.0052389
-1.9433037
-1.8438205
-1.7177353
-1.5509621
-1.3444402
-1.1039794
-0.89587103
-0.72215951
-0.58622262
-0.4462917
-0.31098522
-0.17480042
-0.086628523
-0.02748894
-0.010834483
-0.035373393
-0.093790949
-0.15122898
-0.19710591
-0.24460015
-0.29835141
-0.35358892
-0.40020154
-0.44057863
-0.47649706
-0.51341905
-0.56377157
-0.64942587
-0.76049175
-0.88796689
-0.99137642
-1.0652715
-1.1062548
-1.1345456
-1.1468903
-1.1477673
-1.1433327
-1.1321446
-1.1234936
-1.0976811
-1.0727546
-1.0655201
-1.1020429
-1.1471468
-1.2492271
-1.4702417
-1.6743799
-1.7702181
-1.4858151
0.77238002
4.5542294
10.545251
17.034907
16.187768
16.905378
11.906805
9.3582289
2.3644114
-3.2429966
-8.9979514
-14.183592
-18.593693
-22.556326
-27.531456
-30.90071
-28.77513
-28.114693
-25.793165
-24.61361
-18.447226
-13.474573
1.5646345
15.004827
24.728818
31.546043
34.361129
30.339209
22.60358
16.694073
22.150584
33.791648
47.210517
52.605936
48.765033
31.720082
16.008061
5.9320622
1.1461415
-1.9653981
-4.8007965
-6.4031361
-6.8402311
-6.9145483
-6.9625736
-7.0705764
-6.8565612
-6.2916938
-5.5929705
-5.2334582
-4.8165608
-4.3075588
-3.7417646
-3.1829478
-2.7510462
-2.3567719
-2.0860837
-1.9648509
-1.9116591
-1.5568019
-2.1053907
-2.9506823
-1.4092519
-0.54642519
-1.2248509
-1.2960574
-1.2445051
-1.2188371
-1.2038665
-1.1877187
-1.1655126
-1.1536503
-1.141417
-1.1241113
-1.1156148
-1.0777963
-1.0630868
-1.0111593
-0.97201288
-0.91077808
-0.84249566
-0.76221937
-0.67797781
-0.61004795
-0.54013258
-0.43665386
-0.21084845
-0.052035549
-0.87637252
-0.76995929
-0.81916716
-0.82307945
-0.88829073
-0.89512514
-0.91076053
-0.90431966
-0.90549263
-0.90505125
-0.90798201
-0.9150985
-0.92236161
-0.9290558
-0.93467877
-0.94058725
-0.94649941
-0.9523971
-0.95782726
-0.96279738
-0.96823655
-0.97389786
-0.98127518
-0.98969478
-0.99865738
-1.0075934
-1.0167329
-1.0256958
-1.0340946
-1.0415433
-1.0480491
-1.0536403
-1.0581486
-1.0616159
-1.063179
-1.0637063
-1.0630318
-1.0614487
-1.057568
-1.0523758
-1.0459175
-1.0393048
-1.0310484
-1.0227808
-1.0147796
-1.0079508
-1.0008554
-0.99441895
-0.98876404
-0.98405848
-0.97847141
-0.9713279
-0.96171559
-0.95041386
-0.93670984
-0.92267218
-0.90850324
-0.89731834
-0.887539
-0.88120481
-0.87760681
-0.87713731
-0.87863013
-0.8811888
-0.88527577
-0.89023766
-0.89691837
-0.90391374
-0.91136935
-0.9174444
-0.92232356
-0.92645032
-0.93259947
-0.93833919
-0.94244995
-0.94484538
-0.94612004
-0.94582571
-0.94403444
-0.94122274
-0.93846182
-0.93548153
-0.93134475
-0.92699908
-0.92325152
-0.92068039
-0.91854955
-0.91821232
-0.92036469
-0.92432388
-0.92892168
-0.9349723
-0.94407217
-0.95563543
-0.96917599
-0.98485739
-1.0033977
-1.0224227
-1.0388891
-1.0524832
-1.0641612
-1.0739577
-1.0785322
-1.0785839
-1.0759521
-1.0759984
-1.0802946
-1.0876671
-1.0980983
-1.1152341
-1.1451369
-1.1802638
-1.2167077
-1.2494305
-1.2841684
-1.3137281
-1.3404907
-1.3656813
-1.3977278
-1.4343999
-1.4754861
-1.5144787
-1.5585035
-1.6184212
-1.6877618
-1.7541698
-1.8176634
-1.8723684
-1.9295675
-1.9816138
-2.019221
-2.0295478
-2.0050485
-1.9430962
-1.8437206
-1.7175924
-1.5509707
-1.3443168
-1.1040598
-0.89584049
-0.72233073
-0.58628004
-0.44653676
-0.31113214
-0.17508439
-0.086803951
-0.02772751
-0.01102133
-0.035530382
-0.093895689
-0.15130006
-0.19720133
-0.2446615
-0.29842037
-0.35361963
-0.40025538
-0.44063177
-0.47655878
-0.51347844
-0.56386451
-0.64938819
-0.76052146
-0.88779482
-0.9913444
-1.0650741
-1.1061615
-1.1344164
-1.1467939
-1.1476842
-1.1431317
-1.1320379
-1.1232381
-1.0974297
-1.072253
-1.0652591
-1.1018579
-1.1470094
-1.2499411
-1.4724362
-1.6784742
-1.7734616
-1.4783955
0.77442309
4.5661317
10.545778
17.029818
16.180571
16.873488
11.893388
9.3049946
2.3471223
-3.2697339
-9.0194449
-14.202179
-18.605685
-22.563789
-27.526518
-30.881893
-28.747786
-28.078885
-25.777594
-24.540949
-18.410218
-13.329247
1.6103778
15.061666
24.744084
31.528497
34.305546
30.26197
22.543808
16.710785
22.199504
33.836732
47.226296
52.530807
48.558303
31.666238
15.967608
5.9248303
1.1431744
-1.9719165
-4.8045684
-6.4027542
-6.839523
-6.9147351
-6.9628827
-7.0693934
-6.8564647
-6.2903424
-5.5936563
-5.2333319
-4.8164689
-4.3079086
-3.7423082
-3.184731
-2.7523328
-2.3585176
-2.0878092
-1.9655636
-1.9078375
-1.5635134
-2.1070731
-2.9205816
-1.4086242
-0.56637677
-1.2242621
-1.2950384
-1.244485
-1.218854
-1.20389
-1.1877548
-1.1655915
-1.153627
-1.14134
-1.1240751
-1.1153576
-1.0780638
-1.0629385
-1.0116161
-0.97230548
-0.91128044
-0.84316405
-0.76315958
-0.67913042
-0.6110881
-0.54129357
-0.43791774
-0.21728359
-0.074038072
-0.86764798
-0.76973574
-0.81789788
-0.82311488
-0.88720696
-0.8950303
-0.9103783
-0.90434014
-0.90550831
-0.90509872
-0.90800869
-0.91508672
-0.92234883
-0.9290436
-0.93467372
-0.94057803
-0.94648988
-0.95238628
-0.95781445
-0.96279688
-0.96822488
-0.97390259
-0.98126882
-0.98968919
-0.99864481
-1.0075859
-1.0167196
-1.0256824
-1.0340784
-1.0415323
-1.0480346
-1.0536238
-1.0581346
-1.0615961
-1.063165
-1.0636889
-1.063022
-1.061427
-1.0575568
-1.0523617
-1.0459173
-1.0392919
-1.0310495
-1.0227789
-1.0147912
-1.0079513
-1.0008653
-0.99442644
-0.98877846
-0.98406451
-0.97847941
-0.97132445
-0.96171883
-0.95040834
-0.93672166
-0.92267046
-0.9085257
-0.89732981
-0.88756689
-0.88122364
-0.87763017
-0.87715943
-0.87864387
-0.88121173
-0.88528487
-0.89025819
-0.89691928
-0.90392403
-0.91136417
-0.91745328
-0.92231294
-0.92643536
-0.93257909
-0.93833253
-0.94243428
-0.94483269
-0.94610051
-0.94581743
-0.94402139
-0.94121157
-0.93845093
-0.93547126
-0.93133854
-0.92699016
-0.92325046
-0.92067669
-0.91855221
-0.91821426
-0.92036764
-0.92433063
-0.92892353
-0.93497727
-0.94407051
-0.95564732
-0.96917311
-0.98486275
-1.0033814
-1.0224244
-1.0388692
-1.05247
-1.0641375
-1.0739386
-1.0785133
-1.0785593
-1.0759407
-1.07599
-1.0802905
-1.0876624
-1.098093
-1.115243
-1.1451174
-1.1802678
-1.216675
-1.2494418
-1.2841356
-1.3137157
-1.3404411
-1.3656618
-1.3976727
-1.4343629
-1.4753916
-1.5144411
-1.5585098
-1.6183539
-1.6876127
-1.7540233
-1.81746
-1.8722432
-1.9293861
-1.9814234
-2.0189811
-2.0292819
-2.0048157
-1.9428439
-1.8435971
-1.7174193
-1.5509793
-1.3441676
-1.1041517
-0.89580192
-0.72253545
-0.58634981
-0.44683227
-0.31131258
-0.17542814
-0.087016756
-0.028015813
-0.011248212
-0.03572162
-0.094023765
-0.15138756
-0.19731796
-0.24473753
-0.29850511
-0.35365798
-0.40032084
-0.44069629
-0.47663436
-0.51355216
-0.56397916
-0.64934718
-0.76055961
-0.88759074
-0.99130667
-1.0648368
-1.1060483
-1.1342593
-1.1466763
-1.1475824
-1.142891
-1.1319095
-1.1229331
-1.0971312
-1.0716603
-1.0649511
-1.1016354
-1.1468612
-1.2508316
-1.4750677
-1.6833095
-1.7771154
-1.4695652
0.77673768
4.579986
10.545429
17.022872
16.171372
16.835057
11.877136
9.2412849
2.3262533
-3.3016181
-9.0450181
-14.224317
-18.619988
-22.572631
-27.520455
-30.859596
-28.714894
-28.036142
-25.758419
-24.454658
-18.365498
-13.156829
1.665985
15.129901
24.763419
31.508793
34.240743
30.170842
22.472676
16.729875
22.256669
33.889674
47.244369
52.441445
48.314424
31.599382
15.918159
5.9142875
1.1384551
-1.980079
-4.8092533
-6.4025194
-6.8388177
-6.9150147
-6.9632857
-7.0679491
-6.8563285
-6.2888268
-5.5945021
-5.2331897
-4.8163505
-4.3083034
-3.7429235
-3.186785
-2.7538121
-2.3605316
-2.0898032
-1.9663679
-1.9034057
-1.571222
-2.109061
-2.8861154
-1.4077688
-0.58919766
-1.2237014
-1.2938677
-1.2444493
-1.2188694
-1.2039126
-1.1877914
-1.1656798
-1.1535989
-1.1412508
-1.1240335
-1.11506
-1.0783666
-1.0627688
-1.0121345
-0.97263734
-0.91185344
-0.84392937
-0.76423674
-0.68045424
-0.61229018
-0.54263925
-0.4394061
-0.2247096
-0.098347165
-0.85780604
-0.76942237
-0.81646137
-0.82315317
-0.88598305
-0.89491546
-0.90994387
-0.90436126
-0.90552638
-0.90515367
-0.90804063
-0.91507476
-0.92233539
-0.92903045
-0.93466876
-0.94056813
-0.94647946
-0.9523742
-0.95780004
-0.96279629
-0.96821156
-0.97390815
-0.98126178
-0.98968273
-0.99863036
-1.0075771
-1.0167044
-1.0256667
-1.0340596
-1.0415194
-1.0480178
-1.0536046
-1.0581183
-1.0615733
-1.0631488
-1.0636689
-1.0630105
-1.0614021
-1.0575441
-1.0523458
-1.045917
-1.0392772
-1.031051
-1.0227771
-1.0148047
-1.0079522
-1.0008769
-0.99443535
-0.98879512
-0.98407149
-0.9784884
-0.97132054
-0.96172268
-0.95040257
-0.93673566
-0.92266952
-0.90855215
-0.89734373
-0.88759944
-0.88124582
-0.87765756
-0.87718516
-0.87866022
-0.88123828
-0.88529583
-0.89028174
-0.89692049
-0.90393555
-0.9113581
-0.91746247
-0.92229999
-0.92641803
-0.93255576
-0.93832407
-0.94241567
-0.9448173
-0.9460778
-0.94580746
-0.94400626
-0.94119857
-0.93843837
-0.9354594
-0.93133136
-0.92698012
-0.92324945
-0.92067281
-0.91855556
-0.91821685
-0.92037139
-0.92433861
-0.92892593
-0.93498315
-0.944069
-0.95566102
-0.96917002
-0.98486857
-1.0033627
-1.0224255
-1.0388457
-1.0524538
-1.0641093
-1.0739153
-1.0784905
-1.0785301
-1.075927
-1.0759801
-1.0802853
-1.0876566
-1.0980867
-1.115253
-1.1450948
-1.1802714
-1.2166371
-1.2494543
-1.2840978
-1.3137004
-1.3403831
-1.3656386
-1.3976088
-1.4343188
-1.475282
-1.5143971
-1.5585165
-1.6182752
-1.6874392
-1.7538515
-1.8172244
-1.8720966
-1.9291749
-1.9812008
-2.0187011
-2.028972
-2.0045432
-1.9425502
-1.8434509
-1.7172185
-1.550987
-1.343995
-1.1042517
-0.89575572
-0.72276986
-0.5864315
-0.44717382
-0.31152556
-0.17582702
-0.087264602
-0.028349927
-0.011512474
-0.035945111
-0.094174064
-0.15149108
-0.1974547
-0.24482799
-0.29860496
-0.35370406
-0.40039723
-0.44077146
-0.47672313
-0.5136398
-0.56411441
-0.64930509
-0.76060607
-0.88735938
-0.99126384
-1.0645636
-1.1059165
-1.1340764
-1.1465388
-1.1474628
-1.1426152
-1.1317612
-1.1225842
-1.0967911
-1.0709906
-1.0646047
-1.101381
-1.1467133
-1.2518998
-1.4780981
-1.6887723
-1.7810111
-1.4594597
0.77934873
4.5956489
10.543776
17.013729
16.159966
16.79027
11.858112
9.1680463
2.3020249
-3.3381524
-9.0741652
-14.249558
-18.636307
-22.582595
-27.51309
-30.834152
-28.676926
-27.987336
-25.735681
-24.356716
-18.313436
-12.961406
1.7310265
15.208313
24.786829
31.487709
34.168453
30.06791
22.39154
16.750532
22.320644
33.94933
47.264342
52.339885
48.0397
31.519292
15.859753
5.8996579
1.1315344
-1.9899349
-4.8148846
-6.4025465
-6.8381872
-6.9154032
-6.9637883
-7.0662608
-6.8561474
-6.2871812
-5.5955126
-5.2330352
-4.8162044
-4.3087357
-3.7436011
-3.1890827
-2.7554645
-2.3627874
-2.0920409
-1.9672504
-1.8984523
-1.5797932
-2.1112592
-2.8478831
-1.4066996
-0.6144874
-1.2232174
-1.2925626
-1.2443953
-1.2188819
-1.2039329
-1.1878269
-1.1657759
-1.1535661
-1.1411504
-1.1239873
-1.1147267
-1.0786984
-1.0625813
-1.0127045
-0.97300265
-0.91248776
-0.84477995
-0.76543452
-0.68192974
-0.6136386
-0.54415462
-0.44111582
-0.23302052
-0.12436073
-0.84706952
-0.76900163
-0.81488684
-0.82318898
-0.8846449
-0.89477934
-0.90946583
-0.90438184
-0.90554659
-0.90521548
-0.90807782
-0.91506332
-0.92232184
-0.92901678
-0.93466416
-0.94055789
-0.94646847
-0.95236115
-0.95778436
-0.96279563
-0.96819684
-0.9739144
-0.98125417
-0.98967541
-0.9986142
-1.0075672
-1.0166874
-1.025649
-1.0340386
-1.0415046
-1.0479989
-1.053583
-1.0580999
-1.0615475
-1.0631306
-1.0636466
-1.0629976
-1.0613744
-1.0575299
-1.0523284
-1.0459166
-1.0392611
-1.0310526
-1.0227756
-1.0148198
-1.0079536
-1.0008899
-0.9944456
-0.98881375
-0.98407931
-0.97849814
-0.97131622
-0.96172709
-0.9503968
-0.9367517
-0.92266967
-0.90858225
-0.89736007
-0.88763622
-0.88127113
-0.87768866
-0.87721417
-0.87867909
-0.88126803
-0.88530862
-0.89030789
-0.89692204
-0.90394799
-0.91135112
-0.91747139
-0.92228465
-0.92639848
-0.93252983
-0.93831364
-0.9423942
-0.94479917
-0.94605219
-0.94579578
-0.94398921
-0.94118386
-0.93842428
-0.93544611
-0.93132331
-0.92696917
-0.92324853
-0.92066893
-0.91855964
-0.91822015
-0.92037599
-0.92434773
-0.92892892
-0.93498989
-0.94406779
-0.95567627
-0.96916683
-0.98487459
-1.0033417
-1.0224256
-1.0388189
-1.0524345
-1.064077
-1.0738881
-1.0784637
-1.0784966
-1.075911
-1.0759687
-1.0802793
-1.0876497
-1.0980796
-1.1152639
-1.1450697
-1.1802744
-1.2165944
-1.2494676
-1.2840556
-1.3136822
-1.3403176
-1.3656115
-1.3975369
-1.4342679
-1.475159
-1.5143471
-1.558523
-1.6181857
-1.6872431
-1.753656
-1.8169599
-1.8719296
-1.928936
-1.9809481
-2.0183836
-2.0286212
-2.0042332
-1.9422182
-1.8432825
-1.7169927
-1.5509927
-1.343802
-1.1043565
-0.89570243
-0.72303019
-0.58652483
-0.4475572
-0.3117704
-0.17627642
-0.087545286
-0.028726004
-0.011811476
-0.036198827
-0.094345492
-0.1516103
-0.19761046
-0.24493261
-0.29871922
-0.35375796
-0.4004839
-0.44085663
-0.4768244
-0.51374085
-0.56426887
-0.64926383
-0.76066024
-0.88710526
-0.99121631
-1.064259
-1.1057675
-1.1338699
-1.146383
-1.1473265
-1.1423088
-1.1315947
-1.122197
-1.0964136
-1.0702567
-1.0642275
-1.1011007
-1.1465768
-1.2531455
-1.4814924
-1.6947568
-1.7850012
-1.4482038
0.78231246
4.6131589
10.540384
17.002013
16.146128
16.738862
11.836285
9.0858833
2.2745272
-3.379026
-9.1064709
-14.277498
-18.654376
-22.593455
-27.504158
-30.80587
-28.634315
-27.933308
-25.709387
-24.249036
-18.25427
-12.746962
1.8052626
15.295793
24.814337
31.465983
34.090292
29.955122
22.301658
16.771969
22.390114
34.014629
47.285866
52.227946
47.740038
31.425693
15.792423
5.8802588
1.1219865
-2.0015591
-4.8215115
-6.4029502
-6.8377019
-6.9159166
-6.9643961
-7.0643479
-6.8559169
-6.2854385
-5.5966908
-5.2328717
-4.8160295
-4.3091989
-3.7443324
-3.1915972
-2.757272
-2.3652598
-2.0944973
-1.9681978
-1.8930719
-1.5890858
-2.1135455
-2.8064825
-1.4054529
-0.64184947
-1.2228526
-1.2911401
-1.2443205
-1.2188907
-1.2039497
-1.1878598
-1.1658779
-1.1535288
-1.1410399
-1.1239372
-1.1143627
-1.0790531
-1.06238
-1.0133164
-0.97339634
-0.91317496
-0.84570506
-0.76673779
-0.6835386
-0.61511879
-0.54582553
-0.4430455
-0.2421107
-0.15153219
-0.8356533
-0.76845769
-0.81320196
-0.82321625
-0.88321718
-0.89462072
-0.90895262
-0.90440089
-0.90556877
-0.90528353
-0.90812023
-0.91505299
-0.92230863
-0.92900299
-0.93466015
-0.94054758
-0.94645716
-0.95234739
-0.95776772
-0.96279487
-0.96818099
-0.97392121
-0.9812461
-0.98966724
-0.99859653
-1.007556
-1.0166688
-1.0256294
-1.0340154
-1.041488
-1.047978
-1.0535593
-1.0580794
-1.0615192
-1.0631105
-1.0636224
-1.0629833
-1.0613444
-1.0575145
-1.0523097
-1.0459161
-1.0392439
-1.0310546
-1.0227745
-1.0148364
-1.0079555
-1.0009043
-0.99445711
-0.98883405
-0.98408782
-0.97850837
-0.97131157
-0.96173199
-0.95039128
-0.9367696
-0.92267122
-0.9086157
-0.89737879
-0.88767677
-0.88129934
-0.87772314
-0.87724609
-0.87870035
-0.88130058
-0.8853232
-0.89033619
-0.89692396
-0.90396102
-0.91134326
-0.91747952
-0.9222669
-0.92637685
-0.93250163
-0.93830109
-0.94236999
-0.94477827
-0.94602392
-0.94578234
-0.94397036
-0.94116751
-0.93840879
-0.9354315
-0.93131443
-0.92695749
-0.92324772
-0.92066517
-0.91856444
-0.91822418
-0.92038147
-0.92435793
-0.92893256
-0.9349974
-0.94406701
-0.95569282
-0.96916362
-0.98488053
-1.0033189
-1.0224244
-1.0387888
-1.0524121
-1.0640407
-1.073857
-1.0784331
-1.078459
-1.0758928
-1.075956
-1.0802723
-1.0876418
-1.0980716
-1.1152753
-1.1450421
-1.1802763
-1.2165476
-1.2494814
-1.2840097
-1.3136608
-1.3402452
-1.3655806
-1.3974577
-1.4342102
-1.4750242
-1.5142917
-1.5585287
-1.618086
-1.6870266
-1.7534386
-1.8166698
-1.8717434
-1.9286716
-1.9806672
-2.0180315
-2.028233
-2.0038883
-1.9418515
-1.8430928
-1.7167443
-1.5509959
-1.3435917
-1.1044627
-0.89564266
-0.72331273
-0.58662965
-0.44797827
-0.31204669
-0.17677185
-0.087856787
-0.029140381
-0.012142684
-0.0364808
-0.094537042
-0.15174504
-0.19778424
-0.24505113
-0.29884717
-0.35381986
-0.40058033
-0.44095122
-0.47693754
-0.51385469
-0.56444089
-0.64922496
-0.76072114
-0.88683269
-0.99116427
-1.063927
-1.1056027
-1.133642
-1.1462107
-1.1471743
-1.1419761
-1.1314113
-1.1217765
-1.0960027
-1.0694702
-1.0638263
-1.1008005
-1.1464612
-1.254567
-1.4852173
-1.7011639
-1.7889584
-1.4359391
0.78568146
4.6325177
10.534864
16.987259
16.129617
16.679913
11.811497
8.9952028
2.2437324
-3.4239392
-9.1416271
-14.307778
-18.673962
-22.605022
-27.493298
-30.775033
-28.58746
-27.874849
-25.679537
-24.133423
-18.188175
-12.517322
1.8885411
15.391332
24.845975
31.44432
34.007776
29.834318
22.204217
16.79342
22.463848
34.084534
47.308597
52.107241
47.42088
31.318434
15.716238
5.855512
1.1094087
-2.01505
-4.8291951
-6.4038441
-6.8374315
-6.9165714
-6.9651146
-7.0622314
-6.8556341
-6.2836311
-5.5980383
-5.2327024
-4.8158251
-4.3096862
-3.7451094
-3.1943026
-2.7592171
-2.3679241
-2.0971471
-1.9691967
-1.887361
-1.5989556
-2.1157836
-2.7625003
-1.4040796
-0.67089723
-1.2226427
-1.2896178
-1.2442233
-1.2188948
-1.203962
-1.1878889
-1.1659845
-1.153487
-1.1409203
-1.1238836
-1.1139729
-1.0794249
-1.0621689
-1.0139615
-0.97381394
-0.91390738
-0.84669483
-0.76813247
-0.68526362
-0.61671699
-0.54763858
-0.44519427
-0.25187501
-0.17936744
-0.82376002
-0.76777716
-0.81143258
-0.82322879
-0.881723
-0.89443856
-0.90841233
-0.90441759
-0.9055928
-0.90535724
-0.90816773
-0.91504427
-0.92229615
-0.92898936
-0.93465691
-0.94053745
-0.94644577
-0.95233316
-0.95775044
-0.962794
-0.96816426
-0.97392845
-0.98123767
-0.98965824
-0.99857753
-1.0075438
-1.0166488
-1.0256081
-1.0339905
-1.0414698
-1.0479554
-1.0535336
-1.0580571
-1.0614886
-1.0630888
-1.0635965
-1.0629677
-1.0613124
-1.0574981
-1.05229
-1.0459153
-1.0392258
-1.0310567
-1.0227739
-1.0148542
-1.007958
-1.0009199
-0.99446978
-0.98885573
-0.98409692
-0.97851886
-0.97130666
-0.96173736
-0.95038626
-0.93678921
-0.92267444
-0.90865215
-0.89739983
-0.88772065
-0.88133018
-0.87776065
-0.87728055
-0.87872389
-0.88133551
-0.88533949
-0.8903662
-0.89692625
-0.90397434
-0.91133451
-0.91748639
-0.92224673
-0.92635331
-0.93247146
-0.93828629
-0.94234312
-0.94475458
-0.94599321
-0.9457671
-0.94394983
-0.94114957
-0.93839199
-0.9354157
-0.93130479
-0.92694523
-0.92324702
-0.92066166
-0.91856993
-0.91822895
-0.92038783
-0.92436912
-0.92893687
-0.93500563
-0.94406675
-0.95571039
-0.96916045
-0.98488612
-1.0032945
-1.0224217
-1.0387559
-1.0523864
-1.0640008
-1.073822
-1.0783987
-1.0784176
-1.0758725
-1.0759418
-1.0802643
-1.0876329
-1.0980627
-1.1152867
-1.1450123
-1.1802766
-1.216497
-1.2494951
-1.2839605
-1.3136363
-1.3401667
-1.3655459
-1.3973721
-1.434146
-1.4748792
-1.5142311
-1.5585329