/*--------------------------------*- C++ -*----------------------------------*\
| =========                 |                                                 |
| \\      /  F ield         | OpenFOAM: The Open Source CFD Toolbox           |
|  \\    /   O peration     | Version:  2.4.0                                 |
|   \\  /    A nd           | Web:      www.OpenFOAM.org                      |
|    \\/     M anipulation  |                                                 |
\*---------------------------------------------------------------------------*/
FoamFile
{
    version     2.0;
    format      ascii;
    class       surfaceScalarField;
    location    "380";
    object      phi;
}
// * * * * * * * * * * * * * * * * * * * * * * * * * * * * * * * * * * * * * //

dimensions      [0 3 -1 0 0 0 0];

internalField   nonuniform List<scalar> 
156040
(
2.6322923e-07
-4.4938276e-08
3.2018971e-07
-5.6960483e-08
3.3804702e-07
-1.7857304e-08
3.2572273e-07
1.2324287e-08
2.6055418e-07
6.5168556e-08
1.6058116e-07
9.9973021e-08
4.0527402e-08
1.2005375e-07
-6.3431102e-08
1.039585e-07
-1.1525044e-07
5.1819333e-08
-1.2389127e-07
8.6408251e-09
-1.0759163e-07
-1.6299648e-08
-8.752295e-08
-2.0068693e-08
-7.1397041e-08
-1.6125895e-08
-6.081241e-08
-1.0584641e-08
-5.4048091e-08
-6.7643117e-09
-4.9386139e-08
-4.6619197e-09
-4.6146354e-08
-3.2398138e-09
-4.3691926e-08
-2.4544264e-09
-4.1478368e-08
-2.2135558e-09
-3.9424764e-08
-2.053603e-09
-3.7494906e-08
-1.9298575e-09
-3.5734256e-08
-1.7606492e-09
-3.4409745e-08
-1.3245098e-09
-3.3592556e-08
-8.1718683e-10
-3.3145986e-08
-4.4656996e-10
-3.304434e-08
-1.0165441e-10
-3.3302338e-08
2.5800626e-10
-3.3926768e-08
6.2442769e-10
-3.4951229e-08
1.0244648e-09
-3.6395322e-08
1.4440903e-09
-3.8284238e-08
1.8889181e-09
-4.0623836e-08
2.3395978e-09
-4.3418958e-08
2.7951224e-09
-4.6626681e-08
3.2077229e-09
-5.0158591e-08
3.5319096e-09
-5.3783598e-08
3.6250068e-09
-5.7346662e-08
3.5630642e-09
-6.0898415e-08
3.5517536e-09
-6.4424281e-08
3.5258731e-09
-6.7881882e-08
3.4575927e-09
-7.1222748e-08
3.3494809e-09
-7.4353926e-08
3.1312204e-09
-7.721432e-08
2.860396e-09
-7.9713939e-08
2.4996163e-09
-8.1768248e-08
2.0543084e-09
-8.334677e-08
1.5785213e-09
-8.4473349e-08
1.1265787e-09
-8.5364347e-08
8.9099797e-10
-8.625663e-08
8.92282e-10
-8.6958154e-08
7.0152376e-10
-8.7289569e-08
3.3141472e-10
-8.7170836e-08
-1.1873279e-10
-8.6498466e-08
-6.7237017e-10
-8.5248124e-08
-1.2503429e-09
-8.3297487e-08
-1.9506367e-09
-8.0684704e-08
-2.6127838e-09
-7.7355376e-08
-3.3293281e-09
-7.3665927e-08
-3.6894495e-09
-6.9871473e-08
-3.7944541e-09
-6.7042501e-08
-2.8289724e-09
-6.6081891e-08
-9.6061013e-10
-7.1065821e-08
4.9839302e-09
-9.1270831e-08
2.020501e-08
-1.1300419e-07
2.1733358e-08
-1.3085161e-07
1.7847424e-08
-1.4685341e-07
1.6001799e-08
-1.6129834e-07
1.4444932e-08
-1.743178e-07
1.3019456e-08
-1.8612852e-07
1.1810718e-08
-1.9685569e-07
1.0727177e-08
-2.0667426e-07
9.8185672e-09
-2.1567587e-07
9.0016083e-09
-2.2398998e-07
8.3141073e-09
-2.3168308e-07
7.6931057e-09
-2.3884574e-07
7.1626546e-09
-2.4552002e-07
6.6742832e-09
-2.5175867e-07
6.2386436e-09
-2.5757643e-07
5.8177613e-09
-2.6301121e-07
5.4347858e-09
-2.680999e-07
5.0886844e-09
-2.7287579e-07
4.7758919e-09
-2.7734695e-07
4.4711603e-09
-2.8153615e-07
4.1892019e-09
-2.8545388e-07
3.9177298e-09
-2.8911329e-07
3.659408e-09
-2.9252073e-07
3.4074436e-09
-2.9568556e-07
3.164824e-09
-2.9861264e-07
2.9270854e-09
-3.0130896e-07
2.6963139e-09
-3.0377353e-07
2.4645701e-09
-3.0600823e-07
2.2347039e-09
-3.080307e-07
2.0224707e-09
-3.0988753e-07
1.8568307e-09
-3.1158591e-07
1.6983796e-09
-3.1310112e-07
1.5152056e-09
-3.144121e-07
1.3109873e-09
-3.1551291e-07
1.1008066e-09
-3.1643571e-07
9.2280089e-10
-3.1719936e-07
7.6365342e-10
-3.1781535e-07
6.1598652e-10
-3.1831554e-07
5.0018826e-10
-3.1873821e-07
4.2267491e-10
-3.1912968e-07
3.9146424e-10
-3.1953752e-07
4.0784073e-10
-3.1994324e-07
4.0571959e-10
-3.2021539e-07
2.7214704e-10
-3.2000958e-07
-2.0580572e-10
-3.1933011e-07
-6.7946622e-10
-3.1841783e-07
-9.122813e-10
-3.1729649e-07
-1.1213425e-09
-3.1601221e-07
-1.2842811e-09
-3.1457828e-07
-1.4339311e-09
-3.1300362e-07
-1.5746545e-09
-3.1129478e-07
-1.7088403e-09
-3.094569e-07
-1.8378806e-09
-3.0749506e-07
-1.9618451e-09
-3.0541335e-07
-2.0817023e-09
-3.0321675e-07
-2.1966055e-09
-3.0090891e-07
-2.3078345e-09
-2.9849498e-07
-2.413936e-09
-2.9597841e-07
-2.5165689e-09
-2.9336415e-07
-2.614264e-09
-2.9065552e-07
-2.7086244e-09
-2.8785762e-07
-2.7979002e-09
-2.849741e-07
-2.8835224e-09
-2.820098e-07
-2.9642962e-09
-2.7896824e-07
-3.0415665e-09
-2.7585377e-07
-3.1144687e-09
-2.7267004e-07
-3.1837262e-09
-2.6942129e-07
-3.2487523e-09
-2.6611137e-07
-3.3099158e-09
-2.6274398e-07
-3.3673952e-09
-2.5932307e-07
-3.4209067e-09
-2.5585244e-07
-3.4706305e-09
-2.5233622e-07
-3.5162246e-09
-2.4877716e-07
-3.5590541e-09
-2.4517893e-07
-3.598236e-09
-2.4154441e-07
-3.6345195e-09
-2.3787763e-07
-3.6667805e-09
-2.341811e-07
-3.6965246e-09
-2.3045838e-07
-3.722723e-09
-2.267123e-07
-3.7460754e-09
-2.2294625e-07
-3.7660503e-09
-2.1916327e-07
-3.7829808e-09
-2.1536597e-07
-3.7972985e-09
-2.1155791e-07
-3.8080595e-09
-2.0774117e-07
-3.8167446e-09
-2.0391938e-07
-3.8217922e-09
-2.0009415e-07
-3.8252281e-09
-1.9626881e-07
-3.8253435e-09
-1.9244505e-07
-3.8237507e-09
-1.8862583e-07
-3.8192239e-09
-1.84813e-07
-3.8128353e-09
-1.8100906e-07
-3.8039363e-09
-1.7721588e-07
-3.7931751e-09
-1.7343566e-07
-3.7802227e-09
-1.6967006e-07
-3.7656024e-09
-1.6592129e-07
-3.7487705e-09
-1.6219064e-07
-3.7306439e-09
-1.5848042e-07
-3.7102285e-09
-1.5479136e-07
-3.6890548e-09
-1.5112584e-07
-3.6655238e-09
-1.4748458e-07
-3.6412574e-09
-1.4386965e-07
-3.6149246e-09
-1.4028299e-07
-3.5866601e-09
-1.3672689e-07
-3.556103e-09
-1.3320199e-07
-3.5248967e-09
-1.2971019e-07
-3.4918e-09
-1.262511e-07
-3.4590986e-09
-1.2282776e-07
-3.423333e-09
-1.1943972e-07
-3.3880406e-09
-1.1609032e-07
-3.3494017e-09
-1.1277887e-07
-3.3114505e-09
-1.0950863e-07
-3.2702416e-09
-1.0627825e-07
-3.2303819e-09
-1.03091e-07
-3.1872531e-09
-9.9945122e-08
-3.1458764e-09
-9.6844873e-08
-3.1002477e-09
-9.3787756e-08
-3.0571177e-09
-9.0779323e-08
-3.0084318e-09
-8.7815957e-08
-2.9633656e-09
-8.4904532e-08
-2.9114222e-09
-8.2039903e-08
-2.864628e-09
-7.9231342e-08
-2.8085576e-09
-7.647237e-08
-2.7589703e-09
-7.3775073e-08
-2.6972944e-09
-7.1130647e-08
-2.644423e-09
-6.8555081e-08
-2.5755639e-09
-6.6037041e-08
-2.5180378e-09
-6.359851e-08
-2.4385298e-09
-6.1224266e-08
-2.3742429e-09
-5.8943003e-08
-2.2812617e-09
-5.6733723e-08
-2.209278e-09
-5.4635517e-08
-2.0982062e-09
-5.2621057e-08
-2.0144579e-09
-5.0743034e-08
-1.878023e-09
-4.8965848e-08
-1.7771844e-09
-4.7361307e-08
-1.6045413e-09
-4.5882997e-08
-1.4783085e-09
-4.462689e-08
-1.2561069e-09
-4.3530784e-08
-1.0961042e-09
-4.272441e-08
-8.0637291e-10
-4.2121398e-08
-6.0301074e-10
-4.189629e-08
-2.2510673e-10
-4.1913357e-08
1.7067899e-11
-4.2336809e-08
4.2345152e-10
-4.27945e-08
4.5769228e-10
-4.3811665e-08
1.0171637e-09
-4.4331113e-08
5.1944879e-10
-4.4880972e-08
5.4985811e-10
-4.4780596e-08
-1.0037542e-10
-4.4289055e-08
-4.9154154e-10
-4.3193713e-08
-1.0953416e-09
-4.1659385e-08
-1.5343293e-09
-3.9569096e-08
-2.090288e-09
-3.7031016e-08
-2.5380804e-09
-3.3966156e-08
-3.0648598e-09
-3.0446724e-08
-3.519432e-09
-2.6405191e-08
-4.0415333e-09
-2.188136e-08
-4.5238309e-09
-1.6794228e-08
-5.0871319e-09
-1.1136909e-08
-5.6573188e-09
-4.7587547e-09
-6.3781519e-09
2.31512e-09
-7.073876e-09
1.0044842e-08
-7.7297203e-09
1.8414133e-08
-8.3692915e-09
2.7401905e-08
-8.9877701e-09
3.6993387e-08
-9.5914827e-09
4.716631e-08
-1.017292e-08
5.7886736e-08
-1.0720427e-08
6.9099958e-08
-1.1213223e-08
8.0724941e-08
-1.1624978e-08
9.262413e-08
-1.1899188e-08
1.0456497e-07
-1.194084e-08
1.1600717e-07
-1.1442198e-08
1.2682079e-07
-1.0813619e-08
1.3719768e-07
-1.0376887e-08
1.4713239e-07
-9.934714e-09
1.5667976e-07
-9.5473644e-09
1.65157e-07
-8.4772283e-09
1.7286447e-07
-7.7074477e-09
1.8104956e-07
-8.185105e-09
1.9017681e-07
-9.1271922e-09
2.0037751e-07
-1.0200751e-08
2.1177847e-07
-1.1400856e-08
2.2468707e-07
-1.2908667e-08
2.3999087e-07
-1.5303596e-08
2.5946314e-07
-1.9472443e-08
2.8321467e-07
-2.3751533e-08
3.1050119e-07
-2.7286536e-08
3.4203759e-07
-3.1536414e-08
3.7809435e-07
-3.605679e-08
4.2036813e-07
-4.2273763e-08
4.6953192e-07
-4.9163903e-08
5.2885235e-07
-5.9320524e-08
5.9967826e-07
-7.0824974e-08
6.8629663e-07
-8.6619906e-08
7.8558281e-07
-9.9295726e-08
8.9657308e-07
-1.1098082e-07
9.9897873e-07
-1.0240549e-07
1.0607363e-06
-6.1757399e-08
1.0301991e-06
3.0537329e-08
9.3472012e-07
9.5479052e-08
7.9014842e-07
1.4457174e-07
6.3729785e-07
1.5285059e-07
4.8574066e-07
1.515572e-07
3.6870681e-07
1.1703386e-07
2.7475834e-07
9.3948461e-08
2.3080544e-07
4.395291e-08
1.2514491e-08
8.4558977e-07
-1.7584791e-07
9.9631481e-07
-2.0768553e-07
1.0717864e-06
-9.332893e-08
1.0165327e-06
6.7578014e-08
8.3072763e-07
2.5097366e-07
5.1613831e-07
4.1456234e-07
1.5215316e-07
4.840389e-07
-1.7899628e-07
4.3510794e-07
-3.4508091e-07
2.1790397e-07
-3.8051661e-07
4.407652e-08
-3.3121389e-07
-6.5602357e-08
-2.7190457e-07
-7.9378004e-08
-2.2138129e-07
-6.6649224e-08
-1.8952594e-07
-4.2439959e-08
-1.6795282e-07
-2.833742e-08
-1.539762e-07
-1.8638569e-08
-1.4356061e-07
-1.365539e-08
-1.3621336e-07
-9.8016739e-09
-1.2916802e-07
-9.2589016e-09
-1.229752e-07
-8.2464231e-09
-1.1691197e-07
-7.9930852e-09
-1.1158819e-07
-7.0844289e-09
-1.0745138e-07
-5.4613202e-09
-1.0500393e-07
-3.2646386e-09
-1.0362158e-07
-1.8289254e-09
-1.0338468e-07
-3.3854608e-10
-1.0420969e-07
1.0830114e-09
-1.0622041e-07
2.6351492e-09
-1.094373e-07
4.2413434e-09
-1.1398588e-07
5.9926799e-09
-1.1988937e-07
7.7924045e-09
-1.2720674e-07
9.6569663e-09
-1.3591434e-07
1.1502726e-08
-1.4590425e-07
1.3197626e-08
-1.5687645e-07
1.4504108e-08
-1.6814309e-07
1.4891647e-08
-1.7922028e-07
1.4640259e-08
-1.9025916e-07
1.4590631e-08
-2.012167e-07
1.4483415e-08
-2.1196185e-07
1.4202739e-08
-2.2233418e-07
1.3721717e-08
-2.3208282e-07
1.2879891e-08
-2.4098308e-07
1.1760661e-08
-2.4878266e-07
1.0299191e-08
-2.5521323e-07
8.4848837e-09
-2.6019646e-07
6.5617485e-09
-2.6378564e-07
4.7157542e-09
-2.6668433e-07
3.7896934e-09
-2.6956764e-07
3.7755851e-09
-2.7190029e-07
3.034176e-09
-2.7307115e-07
1.5022796e-09
-2.7291442e-07
-2.7546153e-10
-2.7100411e-07
-2.5826836e-09
-2.6740668e-07
-4.8477727e-09
-2.61594e-07
-7.7633138e-09
-2.5390973e-07
-1.0297061e-08
-2.4387328e-07
-1.3365778e-08
-2.3299661e-07
-1.456612e-08
-2.2154486e-07
-1.52462e-08
-2.1362144e-07
-1.0752394e-08
-2.1104148e-07
-3.5405683e-09
-2.279028e-07
2.1845251e-08
-2.8963743e-07
8.1939636e-08
-3.569025e-07
8.8998423e-08
-4.1189514e-07
7.284007e-08
-4.6150054e-07
6.5607195e-08
-5.0595704e-07
5.8901434e-08
-5.4622468e-07
5.3287092e-08
-5.8257986e-07
4.8165904e-08
-6.1572316e-07
4.3870479e-08
-6.459451e-07
4.0040505e-08
-6.7372963e-07
3.6786135e-08
-6.9931969e-07
3.3904167e-08
-7.2304539e-07
3.141881e-08
-7.4508741e-07
2.9204676e-08
-7.656541e-07
2.7240972e-08
-7.8484587e-07
2.5430407e-08
-8.0275819e-07
2.3730083e-08
-8.1948248e-07
2.215908e-08
-8.3514277e-07
2.0748969e-08
-8.4980713e-07
1.9440258e-08
-8.6354099e-07
1.8205016e-08
-8.7639561e-07
1.7043819e-08
-8.8841513e-07
1.5937254e-08
-8.9963022e-07
1.4874494e-08
-9.1006821e-07
1.3845437e-08
-9.1975173e-07
1.2848348e-08
-9.2870096e-07
1.1876316e-08
-9.3693478e-07
1.0930132e-08
-9.4445457e-07
9.9843587e-09
-9.5126621e-07
9.0463463e-09
-9.5738403e-07
8.1402911e-09
-9.6298875e-07
7.4615518e-09
-9.6814124e-07
6.8508619e-09
-9.7271912e-07
6.0930874e-09
-9.7666573e-07
5.2575969e-09
-9.7998463e-07
4.4197084e-09
-9.8274442e-07
3.6825889e-09
-9.8498565e-07
3.0048866e-09
-9.8678026e-07
2.4105942e-09
-9.8821869e-07
1.9386173e-09
-9.8941997e-07
1.6239557e-09
-9.9052434e-07
1.4958382e-09
-9.9168558e-07
1.5690817e-09
-9.9285577e-07
1.5759057e-09
-9.9364881e-07
1.0651831e-09
-9.9294553e-07
-9.0908142e-10
-9.9073195e-07
-2.893049e-09
-9.8780094e-07
-3.843287e-09
-9.8422437e-07
-4.6979158e-09
-9.8014637e-07
-5.3622797e-09
-9.7560575e-07
-5.9745473e-09
-9.7063201e-07
-6.5484e-09
-9.6524385e-07
-7.0969996e-09
-9.5945824e-07
-7.6234864e-09
-9.5328988e-07
-8.1302118e-09
-9.4675258e-07
-8.6189993e-09
-9.3986055e-07
-9.0886367e-09
-9.3262641e-07
-9.5419681e-09
-9.2506457e-07
-9.9757774e-09
-9.1718708e-07
-1.0394065e-08
-9.0900806e-07
-1.079328e-08
-9.005393e-07
-1.1177389e-08
-8.9179513e-07
-1.1542069e-08
-8.8278766e-07
-1.1890994e-08
-8.7353077e-07
-1.2221187e-08
-8.6403621e-07
-1.2536122e-08
-8.5431702e-07
-1.283366e-08
-8.4438505e-07
-1.3115697e-08
-8.3425294e-07
-1.3380855e-08
-8.2393275e-07
-1.3630111e-08
-8.1343612e-07
-1.3864025e-08
-8.0277516e-07
-1.4081871e-08
-7.9196137e-07
-1.4284413e-08
-7.8100675e-07
-1.4470842e-08
-7.6992102e-07
-1.4644791e-08
-7.5871522e-07
-1.4804036e-08
-7.4739901e-07
-1.4950729e-08
-7.3598366e-07
-1.5082133e-08
-7.2447806e-07
-1.5202123e-08
-7.1289256e-07
-1.5308216e-08
-7.0123635e-07
-1.5402286e-08
-6.8951925e-07
-1.5483158e-08
-6.7775057e-07
-1.5551661e-08
-6.6593877e-07
-1.560909e-08
-6.5409384e-07
-1.5652998e-08
-6.4222318e-07
-1.5687404e-08
-6.3033664e-07
-1.5708329e-08
-6.1844075e-07
-1.5721115e-08
-6.0654461e-07
-1.5721482e-08
-5.9465469e-07
-1.5713674e-08
-5.8277912e-07
-1.5694797e-08
-5.7092438e-07
-1.5667575e-08
-5.5909758e-07
-1.563073e-08
-5.4730499e-07
-1.5585764e-08
-5.355529e-07
-1.5532315e-08
-5.2384697e-07
-1.5471531e-08
-5.1219339e-07
-1.5402358e-08
-5.0059698e-07
-1.5327055e-08
-4.8906385e-07
-1.5243358e-08
-4.7759782e-07
-1.5155084e-08
-4.6620516e-07
-1.505818e-08
-4.5488975e-07
-1.4956666e-08
-4.4365699e-07
-1.4847683e-08
-4.3251244e-07
-1.4731211e-08
-4.2146163e-07
-1.4606915e-08
-4.1050812e-07
-1.4478404e-08
-3.9965646e-07
-1.4343464e-08
-3.889086e-07
-1.420696e-08
-3.7827047e-07
-1.4061459e-08
-3.6774416e-07
-1.391435e-08
-3.5733574e-07
-1.375783e-08
-3.4704719e-07
-1.3600002e-08
-3.3688386e-07
-1.3433569e-08
-3.2684714e-07
-1.3267108e-08
-3.1694178e-07
-1.3092609e-08
-3.0716923e-07
-1.2918429e-08
-2.9753496e-07
-1.2734512e-08
-2.880402e-07
-1.2551876e-08
-2.7869184e-07
-1.2356788e-08
-2.6949061e-07
-1.2164603e-08
-2.6044435e-07
-1.1957676e-08
-2.5155342e-07
-1.175556e-08
-2.4282802e-07
-1.1533952e-08
-2.3426914e-07
-1.1317848e-08
-2.2588991e-07
-1.1076522e-08
-2.1769112e-07
-1.0843203e-08
-2.0969003e-07
-1.0576658e-08
-2.0188873e-07
-1.031933e-08
-1.9431144e-07
-1.001582e-08
-1.8696067e-07
-9.7250124e-09
-1.7986779e-07
-9.3741357e-09
-1.7303558e-07
-9.0414902e-09
-1.6650795e-07
-8.6258336e-09
-1.6028998e-07
-8.2324218e-09
-1.5444229e-07
-7.7257194e-09
-1.4897325e-07
-7.2462236e-09
-1.439689e-07
-6.6088917e-09
-1.3944095e-07
-6.0062559e-09
-1.3550917e-07
-5.1878796e-09
-1.3218446e-07
-4.4208136e-09
-1.2963766e-07
-3.3531724e-09
-1.2786319e-07
-2.3774823e-09
-1.2710419e-07
-9.8410746e-10
-1.2727682e-07
1.8970112e-10
-1.2851662e-07
1.6632549e-09
-1.3012684e-07
2.0679081e-09
-1.3320656e-07
4.0968837e-09
-1.3493521e-07
2.2480988e-09
-1.3646297e-07
2.0776168e-09
-1.361911e-07
-3.722434e-10
-1.3450596e-07
-2.176683e-09
-1.3111977e-07
-4.4815251e-09
-1.2622313e-07
-6.4309714e-09
-1.1973243e-07
-8.5809934e-09
-1.1174177e-07
-1.0528738e-08
-1.0221534e-07
-1.2591288e-08
-9.1195464e-08
-1.4539308e-08
-7.8630913e-08
-1.6606084e-08
-6.4512713e-08
-1.8642031e-08
-4.8710151e-08
-2.0889694e-08
-3.1101823e-08
-2.3265647e-08
-1.130612e-08
-2.6173853e-08
1.0640516e-08
-2.9020514e-08
3.4588781e-08
-3.1677982e-08
6.0505892e-08
-3.4286404e-08
8.8313494e-08
-3.679537e-08
1.1797317e-07
-3.9251158e-08
1.4940912e-07
-4.1608866e-08
1.8252225e-07
-4.3833557e-08
2.1713889e-07
-4.5829865e-08
2.5301403e-07
-4.7500113e-08
2.89738e-07
-4.8623158e-08
3.2655984e-07
-4.8762682e-08
3.6188699e-07
-4.6769339e-08
3.9530835e-07
-4.4234985e-08
4.2739294e-07
-4.2461471e-08
4.5810772e-07
-4.0649497e-08
4.8762365e-07
-3.9063284e-08
5.136189e-07
-3.4472474e-08
5.3715148e-07
-3.1239995e-08
5.6243638e-07
-3.3470022e-08
5.9057342e-07
-3.7264171e-08
6.2205169e-07
-4.1679075e-08
6.5713634e-07
-4.6485394e-08
6.9691431e-07
-5.2686702e-08
7.4394207e-07
-6.233114e-08
8.0376437e-07
-7.9294927e-08
8.7634231e-07
-9.6329471e-08
9.6020466e-07
-1.1114891e-07
1.0565423e-06
-1.278741e-07
1.1674577e-06
-1.469722e-07
1.2963278e-06
-1.7114381e-07
1.4476397e-06
-2.0047601e-07
1.6281287e-06
-2.3980963e-07
1.8461837e-06
-2.8887902e-07
2.1095428e-06
-3.4998066e-07
2.4154485e-06
-4.0521153e-07
2.7509161e-06
-4.4643845e-07
3.0671189e-06
-4.1860808e-07
3.2530443e-06
-2.4768256e-07
3.1778479e-06
1.057338e-07
2.8910335e-06
3.8229359e-07
2.4685282e-06
5.6707711e-07
1.9940966e-06
6.2728225e-07
1.5459059e-06
5.997479e-07
1.1673551e-06
4.9558467e-07
8.9763898e-07
3.6366461e-07
7.3224598e-07
2.0934592e-07
3.0080349e-08
1.5028062e-06
-3.9234634e-07
1.7420122e-06
-4.4689148e-07
1.8840334e-06
-2.3535013e-07
1.7776718e-06
1.739396e-07
1.4685524e-06
5.6009299e-07
9.2411804e-07
9.5899673e-07
2.9930838e-07
1.1088485e-06
-2.8345229e-07
1.0178686e-06
-5.8178403e-07
5.1623571e-07
-6.5379851e-07
1.1609099e-07
-5.7169787e-07
-1.47703e-07
-4.7189184e-07
-1.7918407e-07
-3.8435299e-07
-1.5418804e-07
-3.2984921e-07
-9.6943755e-08
-2.9204336e-07
-6.6143262e-08
-2.6812235e-07
-4.2559526e-08
-2.4979847e-07
-3.1979318e-08
-2.3722825e-07
-2.2371888e-08
-2.2489129e-07
-2.1595854e-08
-2.14278e-07
-1.8859713e-08
-2.0371978e-07
-1.8551305e-08
-1.945919e-07
-1.6212314e-08
-1.8740674e-07
-1.2646474e-08
-1.8323002e-07
-7.4413552e-09
-1.808499e-07
-4.2090467e-09
-1.8051233e-07
-6.7612737e-10
-1.819838e-07
2.554495e-09
-1.855485e-07
6.1998494e-09
-1.9118419e-07
9.8770356e-09
-1.991524e-07
1.3960889e-08
-2.0945363e-07
1.8093635e-08
-2.2221748e-07
2.242082e-08
-2.3737432e-07
2.6659567e-08
-2.547528e-07
3.0576104e-08
-2.7381394e-07
3.3565243e-08
-2.9339016e-07
3.4467875e-08
-3.1264446e-07
3.3894551e-08
-3.3182529e-07
3.3771469e-08
-3.5086287e-07
3.3520997e-08
-3.6953037e-07
3.2870231e-08
-3.8754223e-07
3.173358e-08
-4.0449302e-07
2.9830728e-08
-4.1997081e-07
2.7238452e-08
-4.3355618e-07
2.3884562e-08
-4.4478453e-07
1.971323e-08
-4.5353385e-07
1.5311069e-08
-4.5988234e-07
1.1064238e-08
-4.6507286e-07
8.980215e-09
-4.7022892e-07
8.9316431e-09
-4.7447216e-07
7.2774145e-09
-4.7670898e-07
3.7391082e-09
-4.7670798e-07
-2.7647153e-10
-4.7366718e-07
-5.6234761e-09
-4.6779926e-07
-1.0715699e-08
-4.581078e-07
-1.7454774e-08
-4.4533562e-07
-2.3069242e-08
-4.2844921e-07
-3.0252188e-08
-4.103156e-07
-3.2699727e-08
-3.9109621e-07
-3.4465586e-08
-3.7839344e-07
-2.3455169e-08
-3.748172e-07
-7.1168117e-09
-4.0562382e-07
5.2651875e-08
-5.1172324e-07
1.8803905e-07
-6.2786919e-07
2.0514437e-07
-7.2281979e-07
1.6779068e-07
-8.086222e-07
1.514096e-07
-8.8527796e-07
1.355572e-07
-9.5482407e-07
1.2283319e-07
-1.0174942e-06
1.1083604e-07
-1.0747002e-06
1.0107645e-07
-1.1267833e-06
9.212367e-08
-1.1747107e-06
8.4713543e-08
-1.218801e-06
7.7994379e-08
-1.2597049e-06
7.2322801e-08
-1.2976707e-06
6.7170454e-08
-1.333109e-06
6.2679241e-08
-1.3661531e-06
5.8474509e-08
-1.3970014e-06
5.4578395e-08
-1.425798e-06
5.0955674e-08
-1.4527543e-06
4.7705275e-08
-1.4779618e-06
4.4647793e-08
-1.5015679e-06
4.1811091e-08
-1.5236483e-06
3.9124168e-08
-1.5442863e-06
3.6575315e-08
-1.5635285e-06
3.4116708e-08
-1.5814272e-06
3.1744141e-08
-1.5980175e-06
2.9438568e-08
-1.6133376e-06
2.7196432e-08
-1.6274187e-06
2.501127e-08
-1.6402677e-06
2.2833342e-08
-1.651892e-06
2.0670609e-08
-1.6622724e-06
1.8520742e-08
-1.6717653e-06
1.695441e-08
-1.6805204e-06
1.5605976e-08
-1.6882794e-06
1.3852097e-08
-1.6949498e-06
1.1927965e-08
-1.7005597e-06
1.002961e-08
-1.7051912e-06
8.3140926e-09
-1.708896e-06
6.7097302e-09
-1.711837e-06
5.3515672e-09
-1.7141648e-06
4.2664574e-09
-1.7160848e-06
3.5439596e-09
-1.7178381e-06
3.2491219e-09
-1.719697e-06
3.4279545e-09
-1.7215973e-06
3.4762364e-09
-1.7228938e-06
2.3616979e-09
-1.7215772e-06
-2.2257566e-09
-1.7175867e-06
-6.8835244e-09
-1.7123543e-06
-9.0756997e-09
-1.7060109e-06
-1.1041286e-08
-1.6988034e-06
-1.2569748e-08
-1.6907975e-06
-1.3980472e-08
-1.682045e-06
-1.5300871e-08
-1.6725774e-06
-1.6564628e-08
-1.6624246e-06
-1.7776294e-08
-1.6516113e-06
-1.8943484e-08
-1.6401623e-06
-2.0068058e-08
-1.6281012e-06
-2.1149696e-08
-1.6154509e-06
-2.2192294e-08
-1.6022352e-06
-2.3191488e-08
-1.5884758e-06
-2.4153404e-08
-1.5741965e-06
-2.5072584e-08
-1.5594186e-06
-2.595531e-08
-1.5441659e-06
-2.6794765e-08
-1.52846e-06
-2.7596951e-08
-1.5123239e-06
-2.8357209e-08
-1.4957788e-06
-2.9081228e-08
-1.4788468e-06
-2.9765689e-08
-1.4615488e-06
-3.0413738e-08
-1.4439062e-06
-3.102337e-08
-1.4259401e-06
-3.1596232e-08
-1.4076707e-06
-3.21334e-08
-1.3891189e-06
-3.263375e-08
-1.3703043e-06
-3.3099009e-08
-1.3512471e-06
-3.3528016e-08
-1.331965e-06
-3.3926911e-08
-1.3124768e-06
-3.4292206e-08
-1.2927997e-06
-3.4627794e-08
-1.2729525e-06
-3.4929415e-08
-1.2529511e-06
-3.5203475e-08
-1.2328131e-06
-3.544622e-08
-1.2125546e-06
-3.56608e-08
-1.1921921e-06
-3.5845644e-08
-1.1717417e-06
-3.6002083e-08
-1.1512182e-06
-3.6132546e-08
-1.1306382e-06
-3.6233016e-08
-1.1100152e-06
-3.6310422e-08
-1.0893652e-06
-3.6358348e-08
-1.0687005e-06
-3.6385773e-08
-1.0480361e-06
-3.6385883e-08
-1.027384e-06
-3.6365823e-08
-1.0067575e-06
-3.632128e-08
-9.8616835e-07
-3.625671e-08
-9.6562843e-07
-3.6170652e-08
-9.4514886e-07
-3.6065326e-08
-9.2474019e-07
-3.5940989e-08
-9.0441259e-07
-3.5799134e-08
-8.8417625e-07
-3.5638696e-08
-8.6404012e-07
-3.5463182e-08
-8.4401409e-07
-3.5269393e-08
-8.2410579e-07
-3.5063381e-08
-8.0432533e-07
-3.4838639e-08
-7.8468053e-07
-3.4601465e-08
-7.6518006e-07
-3.4348154e-08
-7.4583323e-07
-3.4078038e-08
-7.2664856e-07
-3.379159e-08
-7.0763331e-07
-3.349365e-08
-6.8879439e-07
-3.3182388e-08
-6.7013741e-07
-3.2863937e-08
-6.516702e-07
-3.2528667e-08
-6.3339883e-07
-3.2185721e-08
-6.1533082e-07
-3.1825846e-08
-5.974725e-07
-3.1458323e-08
-5.7982987e-07
-3.10762e-08
-5.6240915e-07
-3.0687829e-08
-5.4521493e-07
-3.0286822e-08
-5.2825445e-07
-2.9878917e-08
-5.1153192e-07
-2.9457034e-08
-4.9505567e-07
-2.9028134e-08
-4.7883054e-07
-2.8581914e-08
-4.6286603e-07
-2.8129114e-08
-4.4716654e-07
-2.7657157e-08
-4.3174393e-07
-2.7178172e-08
-4.1660315e-07
-2.6674724e-08
-4.0176048e-07
-2.6160517e-08
-3.8722193e-07
-2.561507e-08
-3.7300833e-07
-2.50568e-08
-3.5912729e-07
-2.4457696e-08
-3.4560827e-07
-2.3838345e-08
-3.3246288e-07
-2.3161213e-08
-3.1972995e-07
-2.2457938e-08
-3.0742405e-07
-2.1680031e-08
-2.9559707e-07
-2.0868473e-08
-2.8427161e-07
-1.9951289e-08
-2.7351884e-07
-1.8985188e-08
-2.6337255e-07
-1.7872016e-08
-2.5392979e-07
-1.6688981e-08
-2.452448e-07
-1.5293879e-08
-2.3744611e-07
-1.3804946e-08
-2.3061761e-07
-1.2016381e-08
-2.2491998e-07
-1.0118444e-08
-2.20488e-07
-7.7851471e-09
-2.1749488e-07
-5.3706013e-09
-2.1615351e-07
-2.3254738e-09
-2.1655417e-07
5.9036229e-10
-2.186758e-07
3.7848833e-09
-2.2164538e-07
5.0374921e-09
-2.2694494e-07
9.3964369e-09
-2.3001753e-07
5.320695e-09
-2.3249942e-07
4.5595043e-09
-2.3201651e-07
-8.5515026e-10
-2.2894562e-07
-5.2475733e-09
-2.2305129e-07
-1.0375859e-08
-2.1444061e-07
-1.5041652e-08
-2.031622e-07
-1.9859402e-08
-1.8921343e-07
-2.4477511e-08
-1.7267344e-07
-2.9131281e-08
-1.5349395e-07
-3.371879e-08
-1.3169133e-07
-3.8408708e-08
-1.0715969e-07
-4.3173668e-08
-7.9754161e-08
-4.8295224e-08
-4.919358e-08
-5.3826228e-08
-1.4878974e-08
-6.0488456e-08
2.3154557e-08
-6.7054047e-08
6.4631648e-08
-7.315507e-08
1.0950999e-07
-7.9164746e-08
1.5764273e-07
-8.4928111e-08
2.0896796e-07
-9.0576382e-08
2.6335082e-07
-9.5991731e-08
3.2062063e-07
-1.0110336e-07
3.8047835e-07
-1.0568759e-07
4.4249437e-07
-1.0951613e-07
5.059704e-07
-1.1209919e-07
5.6960027e-07
-1.1239256e-07
6.3069182e-07
-1.0786089e-07
6.8852828e-07
-1.0207144e-07
7.440681e-07
-9.8001291e-08
7.972606e-07
-9.384199e-08
8.4835721e-07
-9.0159883e-08
8.9307846e-07
-7.919372e-08
9.3348122e-07
-7.1642725e-08
9.7721442e-07
-7.7203241e-08
1.0258753e-06
-8.5924992e-08
1.0803269e-06
-9.6130721e-08
1.1409598e-06
-1.0711822e-07
1.2097102e-06
-1.2143714e-07
1.2909141e-06
-1.4353478e-07
1.3940736e-06
-1.8245464e-07
1.5189028e-06
-2.2115868e-07
1.6634262e-06
-2.5567232e-07
1.8290347e-06
-2.9348264e-07
2.0201222e-06
-3.3805969e-07
2.2412722e-06
-3.9229381e-07
2.5017254e-06
-4.6092938e-07
2.8108523e-06
-5.4893661e-07
3.1858579e-06
-6.6388371e-07
3.636313e-06
-8.0043744e-07
4.1616953e-06
-9.3060365e-07
4.7328977e-06
-1.0176311e-06
5.2751023e-06
-9.6081244e-07
5.5924524e-06
-5.6503243e-07
5.4821617e-06
2.1602461e-07
5.0033478e-06
8.6110755e-07
4.2999567e-06
1.2704683e-06
3.4867155e-06
1.4405235e-06
2.7299364e-06
1.356527e-06
2.0657249e-06
1.1597962e-06
1.6123317e-06
8.1705773e-07
1.3049662e-06
5.1671148e-07
4.8738763e-08
2.2398602e-06
-6.9410421e-07
2.5688414e-06
-7.7587263e-07
2.7774933e-06
-4.4400203e-07
2.6183618e-06
3.3307112e-07
2.1781616e-06
1.0002931e-06
1.392202e-06
1.7449564e-06
4.8618188e-07
2.0148687e-06
-3.7222191e-07
1.8762724e-06
-8.2421171e-07
9.6822551e-07
-9.4311693e-07
2.3499621e-07
-8.297878e-07
-2.6103212e-07
-6.8787042e-07
-3.2110143e-07
-5.6113882e-07
-2.8091972e-07
-4.822669e-07
-1.7581561e-07
-4.2699661e-07
-1.2141354e-07
-3.9229267e-07
-7.7263517e-08
-3.6543538e-07
-5.8836583e-08
-3.4719344e-07
-4.0613828e-08
-3.2916477e-07
-3.9624534e-08
-3.1378202e-07
-3.4242456e-08
-2.9840378e-07
-3.3929551e-08
-2.8519489e-07
-2.9421201e-08
-2.7475092e-07
-2.3090449e-08
-2.6873264e-07
-1.3459633e-08
-2.6531587e-07
-7.6258217e-09
-2.6491358e-07
-1.0784141e-09
-2.6713614e-07
4.777051e-09
-2.7243566e-07
1.1499369e-08
-2.8074616e-07
1.8187529e-08
-2.9247075e-07
2.5685482e-08
-3.0758845e-07
3.3211332e-08
-3.2629796e-07
4.1130335e-08
-3.4847956e-07
4.8841166e-08
-3.7388688e-07
5.5983419e-08
-4.0172552e-07
6.1403886e-08
-4.303176e-07
6.3059954e-08
-4.5844475e-07
6.2021703e-08
-4.8645856e-07
6.1785273e-08
-5.1425831e-07
6.1320752e-08
-5.4151672e-07
6.0128636e-08
-5.678152e-07
5.8031993e-08
-5.9258073e-07
5.4596282e-08
-6.1520542e-07
4.9863142e-08
-6.3509404e-07
4.3773178e-08
-6.515768e-07
3.6195987e-08
-6.6448215e-07
2.821642e-08
-6.7392541e-07
2.0507504e-08
-6.8172272e-07
1.6777522e-08
-6.8948047e-07
1.6689393e-08
-6.959459e-07
1.3742841e-08
-6.9952372e-07
7.316927e-09
-6.9990494e-07
1.0475338e-10
-6.958958e-07
-9.6326236e-09
-6.8786071e-07
-1.8750785e-08
-6.7434466e-07
-3.0970822e-08
-6.5649104e-07
-4.0922865e-08
-6.3271026e-07
-5.4032966e-08
-6.0725987e-07
-5.8150119e-08
-5.8031737e-07
-6.1408084e-08
-5.6315231e-07
-4.0620228e-08
-5.5950587e-07
-1.0763259e-08
-6.063191e-07
9.9465106e-08
-7.5992692e-07
3.4164687e-07
-9.2829654e-07
3.73514e-07
-1.0662225e-06
3.0571665e-07
-1.1908569e-06
2.7604396e-07
-1.302035e-06
2.4673531e-07
-1.4029246e-06
2.2372283e-07
-1.4937744e-06
2.0168579e-07
-1.5767224e-06
1.8402444e-07
-1.6521934e-06
1.6759469e-07
-1.7216532e-06
1.5417338e-07
-1.7855192e-06
1.4186032e-07
-1.8447733e-06
1.3157697e-07
-1.8997466e-06
1.2214371e-07
-1.9510586e-06
1.1399125e-07
-1.9988855e-06
1.0630137e-07
-2.0435326e-06
9.9225501e-08
-2.0852103e-06
9.2633459e-08
-2.1242046e-06
8.6699577e-08
-2.1606274e-06
8.1070583e-08
-2.1947258e-06
7.5909483e-08
-2.2266028e-06
7.1001126e-08
-2.2563821e-06
6.6354614e-08
-2.284128e-06
6.1862669e-08
-2.3099192e-06
5.7535286e-08
-2.3338045e-06
5.3323889e-08
-2.3558418e-06
4.9233687e-08
-2.3760759e-06
4.5245367e-08
-2.3945214e-06
4.1278911e-08
-2.4111829e-06
3.7332036e-08
-2.4259756e-06
3.3313458e-08
-2.4394787e-06
3.0457579e-08
-2.4519704e-06
2.8097598e-08
-2.463018e-06
2.4899747e-08
-2.4724903e-06
2.1400208e-08
-2.4804564e-06
1.7995725e-08
-2.4869835e-06
1.4841207e-08
-2.4921217e-06
1.1847918e-08
-2.4961571e-06
9.3869871e-09
-2.4993051e-06
7.4144312e-09
-2.5018622e-06
6.1010788e-09
-2.5041792e-06
5.5661738e-09
-2.506659e-06
5.9076877e-09
-2.5092404e-06
6.057629e-09
-2.5110105e-06
4.1318447e-09
-2.5089445e-06
-4.2917401e-09
-2.5029054e-06
-1.2922635e-08
-2.4950551e-06
-1.6925994e-08
-2.4856011e-06
-2.0495306e-08
-2.4748949e-06
-2.3275945e-08
-2.4630313e-06
-2.5844067e-08
-2.4500857e-06
-2.8246485e-08
-2.4361032e-06
-3.0547151e-08
-2.4211275e-06
-3.2751956e-08
-2.4051943e-06
-3.4876664e-08
-2.3883399e-06
-3.6922501e-08
-2.3705984e-06
-3.8891211e-08
-2.3520033e-06
-4.0787347e-08
-2.3325889e-06
-4.2605958e-08
-2.3123872e-06
-4.4355077e-08
-2.2914322e-06
-4.6027559e-08
-2.2697556e-06
-4.7631943e-08
-2.2473913e-06
-4.9159016e-08
-2.2243711e-06
-5.0617187e-08
-2.2007281e-06
-5.2000197e-08
-2.1764932e-06
-5.3316102e-08
-2.1516984e-06
-5.4560477e-08
-2.1263743e-06
-5.5737839e-08
-2.100552e-06
-5.6845659e-08
-2.0742619e-06
-5.7886414e-08
-2.0475335e-06
-5.886178e-08
-2.0203969e-06
-5.977033e-08
-1.9928808e-06
-6.0615085e-08
-1.9650141e-06
-6.1394722e-08
-1.9368229e-06
-6.2118143e-08
-1.9083344e-06
-6.2780677e-08
-1.8795739e-06
-6.3388279e-08
-1.850568e-06
-6.3935329e-08
-1.8213406e-06
-6.4430868e-08
-1.7919167e-06
-6.4870134e-08
-1.7623199e-06
-6.5257601e-08
-1.732574e-06
-6.5591588e-08
-1.7027021e-06
-6.5873938e-08
-1.6727262e-06
-6.6108494e-08
-1.6426696e-06
-6.6289605e-08
-1.6125525e-06
-6.6427523e-08
-1.5823975e-06
-6.6513351e-08
-1.5522232e-06
-6.6560048e-08
-1.5220507e-06
-6.6558348e-08
-1.491898e-06
-6.6518555e-08
-1.461784e-06
-6.6435223e-08
-1.4317262e-06
-6.6314582e-08
-1.4017413e-06
-6.6155484e-08
-1.3718459e-06
-6.5960762e-08
-1.342055e-06
-6.5731907e-08
-1.3123836e-06
-6.547054e-08
-1.2828462e-06
-6.5176038e-08
-1.2534563e-06
-6.4853106e-08
-1.2242278e-06
-6.4497958e-08
-1.1951723e-06
-6.4118827e-08
-1.1663042e-06
-6.3706781e-08
-1.1376354e-06
-6.3270252e-08
-1.1091782e-06
-6.2805361e-08
-1.0809459e-06
-6.2310307e-08
-1.0529504e-06
-6.1787129e-08
-1.0252028e-06
-6.124126e-08
-9.9771258e-07
-6.0672562e-08
-9.7048933e-07
-6.0087182e-08
-9.4354295e-07
-5.9475047e-08
-9.1688375e-07
-5.8844927e-08
-8.9052095e-07
-5.8188646e-08
-8.6446545e-07
-5.7513827e-08
-8.3872415e-07
-5.6817501e-08
-8.1330831e-07
-5.6103672e-08
-7.8822259e-07
-5.537254e-08
-7.6348016e-07
-5.4621344e-08
-7.3908434e-07
-5.385285e-08
-7.1505072e-07
-5.3061763e-08
-6.9138244e-07
-5.2250191e-08
-6.68098e-07
-5.1413548e-08
-6.4519872e-07
-5.0556432e-08
-6.2270825e-07
-4.9668639e-08
-6.0062672e-07
-4.8756258e-08
-5.7898611e-07
-4.7801118e-08
-5.5778581e-07
-4.6815368e-08
-5.3706728e-07
-4.5775329e-08
-5.1682903e-07