/*--------------------------------*- C++ -*----------------------------------*\
| =========                 |                                                 |
| \\      /  F ield         | OpenFOAM: The Open Source CFD Toolbox           |
|  \\    /   O peration     | Version:  2.4.0                                 |
|   \\  /    A nd           | Web:      www.OpenFOAM.org                      |
|    \\/     M anipulation  |                                                 |
\*---------------------------------------------------------------------------*/
FoamFile
{
    version     2.0;
    format      ascii;
    class       volVectorField;
    location    "380";
    object      U;
}
// * * * * * * * * * * * * * * * * * * * * * * * * * * * * * * * * * * * * * //

dimensions      [0 1 -1 0 0 0 0];

internalField   nonuniform List<vector> 
78300
(
(0.0053527754 2.2876606e-05 1.2979675e-21)
(0.0039211636 1.9664482e-05 -1.2644882e-21)
(0.0066952537 -4.2474749e-05 1.0802911e-21)
(0.0052457093 -0.00016131523 -2.9552656e-20)
(0.0058273531 -0.00039492837 -8.4092169e-21)
(0.0033195003 -0.00038897764 1.6268096e-20)
(0.0021351972 -0.00038722769 9.5033847e-21)
(-0.00063230071 0.00015268758 -3.3448617e-20)
(-0.0015695262 0.00051469247 -1.2261359e-20)
(-0.0023267917 0.00098088329 1.3777829e-20)
(-0.0019182421 0.00096736091 8.4658439e-21)
(-0.0016941754 0.00097864599 -2.1628344e-20)
(-0.0012525175 0.00080007918 3.3784799e-21)
(-0.0011016594 0.00076260042 -1.5615816e-20)
(-0.00089954857 0.00066152821 1.1728183e-20)
(-0.00084413514 0.00065156003 -1.6529285e-20)
(-0.00074076315 0.00059285124 -5.1293856e-21)
(-0.00071404237 0.00058802573 2.3297266e-21)
(-0.00065209634 0.00054775966 -8.3559175e-21)
(-0.0006244258 0.00053159784 5.7884581e-21)
(-0.00057694409 0.00049423809 7.2207247e-21)
(-0.00054918523 0.0004705674 -5.7315907e-21)
(-0.00051297163 0.00043663261 -2.0191096e-21)
(-0.00049649365 0.00041791375 8.7054221e-22)
(-0.0004787597 0.0003983614 2.0428961e-21)
(-0.00047206401 0.00038860449 4.6607367e-22)
(-0.00046616979 0.00037988086 5.9708141e-22)
(-0.00046885218 0.00037852383 -1.9499245e-21)
(-0.0004741828 0.00037953967 -1.6224994e-21)
(-0.00048709731 0.00038685006 -1.0970232e-21)
(-0.00050411588 0.00039756246 1.177465e-21)
(-0.00052805141 0.00041387316 2.5267581e-21)
(-0.0005567175 0.00043401399 9.8148658e-22)
(-0.00059144176 0.00045903139 1.3472859e-21)
(-0.00062997262 0.00048718393 -1.4794091e-21)
(-0.00067150999 0.00051793721 9.8523668e-22)
(-0.00071109884 0.00054679492 -1.565763e-21)
(-0.00074972475 0.00057311746 -4.9815711e-23)
(-0.00078784458 0.00059685851 -2.2048805e-21)
(-0.0008248132 0.00061724932 3.3980186e-22)
(-0.00086040276 0.00063380853 -3.097783e-24)
(-0.00089355507 0.0006455568 -2.6294235e-22)
(-0.00092380686 0.00065201854 -8.4145465e-22)
(-0.00094984774 0.00065203064 -1.4893043e-21)
(-0.00097145254 0.00064546158 3.2148048e-21)
(-0.00098690915 0.00063120402 4.3920417e-21)
(-0.00099780899 0.00061046289 -1.8034164e-21)
(-0.0010030347 0.00058270501 -5.616873e-21)
(-0.0010097283 0.00055269414 6.0006736e-21)
(-0.0010153863 0.0005206437 -5.1405047e-21)
(-0.001018906 0.00048655035 -1.1831115e-20)
(-0.001016166 0.00044878721 1.6091416e-21)
(-0.0010109252 0.00040959711 -2.3012176e-21)
(-0.00099523042 0.00036628352 -8.9373069e-21)
(-0.00097888358 0.00032338146 -2.8851013e-21)
(-0.00094630037 0.00027635779 2.486142e-21)
(-0.00091799016 0.00023244849 1.7902686e-21)
(-0.00086665863 0.00018527376 3.6040108e-21)
(-0.00083508658 0.00014523612 4.858851e-23)
(-0.00077637408 0.0001036457 -1.7482923e-21)
(-0.00077560809 7.1935645e-05 3.304161e-23)
(-0.00074992355 3.8718649e-05 -5.0505506e-23)
(-0.00090511127 1.0841043e-05 -1.5167309e-22)
(-0.0012098999 3.6935524e-07 5.6442349e-26)
(-0.0014150487 3.6227572e-07 -6.6279357e-26)
(-0.0016213514 3.2883814e-07 -3.095449e-25)
(-0.0017892929 3.4743508e-07 3.43362e-25)
(-0.0019544877 3.3449873e-07 -3.4730727e-25)
(-0.0020932361 3.5104354e-07 2.2371592e-25)
(-0.0022274025 3.4431441e-07 -2.7729702e-25)
(-0.0023433386 3.5601962e-07 1.8125236e-25)
(-0.0024545375 3.5436301e-07 3.3054076e-25)
(-0.0025529888 3.639686e-07 -4.1213637e-25)
(-0.0026470538 3.650503e-07 -1.4463611e-18)
(-0.0027320154 3.7302231e-07 -1.2186467e-18)
(-0.0028130269 3.7546424e-07 4.4122776e-25)
(-0.0028872343 3.8204117e-07 -1.8762733e-25)
(-0.0029576658 3.8504374e-07 -6.84857e-26)
(-0.0030224172 3.9128742e-07 -2.6262988e-26)
(-0.0030837845 3.8961526e-07 3.4707842e-26)
(-0.0031407021 3.8879985e-07 -8.9212631e-26)
(-0.003194518 3.9015104e-07 3.2108104e-25)
(-0.0032445882 3.9174085e-07 -1.7231752e-25)
(-0.0032917288 3.9139401e-07 -4.4853618e-25)
(-0.0033355879 3.9118598e-07 4.8654809e-25)
(-0.0033766582 3.893474e-07 -7.0136679e-26)
(-0.003414725 3.8760513e-07 5.7940833e-25)
(-0.0034501159 3.8446106e-07 -7.9587838e-25)
(-0.0034826955 3.8089056e-07 -6.2652586e-25)
(-0.0035127037 3.755089e-07 9.5977331e-25)
(-0.0035399089 3.6823366e-07 -8.1017697e-25)
(-0.0035647125 3.5943026e-07 6.4650635e-25)
(-0.003586763 3.6009773e-07 -3.6709257e-25)
(-0.0036077093 3.6181824e-07 -7.7738277e-26)
(-0.0036263408 3.5640721e-07 2.6821142e-26)
(-0.0036428508 3.5142974e-07 5.4578281e-25)
(-0.0036567017 3.4895415e-07 -4.6514956e-26)
(-0.0036685032 3.3705529e-07 8.1095782e-25)
(-0.0036781915 3.2294589e-07 -4.0965463e-27)
(-0.0036861173 3.1541589e-07 -1.5976356e-24)
(-0.0036925285 3.0798432e-07 7.5844529e-25)
(-0.0036977272 3.0114319e-07 -7.2754147e-26)
(-0.0037023593 2.9542867e-07 1.0821628e-24)
(-0.0037067985 2.9060022e-07 -2.7236937e-26)
(-0.0037118238 2.8355845e-07 -2.1180446e-24)
(-0.0037161542 2.6791471e-07 -1.4606568e-25)
(-0.0037182302 2.4834182e-07 7.3488942e-26)
(-0.0037114327 2.327627e-07 1.0878293e-24)
(-0.0037023599 2.1838278e-07 -1.0858034e-25)
(-0.0036902834 2.051899e-07 -1.3711182e-24)
(-0.0036763147 1.9257941e-07 2.5338691e-24)
(-0.0036604776 1.8015032e-07 -2.8989744e-24)
(-0.003643016 1.676569e-07 2.730406e-24)
(-0.0036239261 1.5506229e-07 -5.2494663e-25)
(-0.0036033384 1.4240212e-07 3.2065928e-25)
(-0.0035812614 1.2975174e-07 -1.3565113e-24)
(-0.0035577867 1.1698019e-07 7.6875761e-25)
(-0.003532936 1.0425411e-07 2.0732389e-25)
(-0.0035067841 9.1240196e-08 -1.4944283e-25)
(-0.0034793619 7.8665249e-08 -1.4642981e-25)
(-0.0034507354 6.581047e-08 3.1068356e-17)
(-0.0034209402 5.3379781e-08 3.1969606e-17)
(-0.0033900353 4.0610319e-08 1.8723741e-24)
(-0.0033580605 2.826922e-08 -1.5214164e-25)
(-0.0033250742 1.5754872e-08 -1.75395e-25)
(-0.0032911191 3.6313049e-09 -1.2726769e-25)
(-0.0032562493 -8.6150161e-09 -1.054892e-26)
(-0.0032205059 -2.0470806e-08 -4.2980777e-25)
(-0.0031839391 -3.2278999e-08 -1.9695553e-25)
(-0.0031465919 -4.3992383e-08 6.8582704e-25)
(-0.0031085132 -5.5320409e-08 3.7399414e-26)
(-0.0030697452 -6.679552e-08 3.753158e-25)
(-0.0030303338 -7.7787828e-08 -6.2163821e-25)
(-0.0029903236 -8.8901656e-08 8.6956004e-26)
(-0.00294976 -9.9306422e-08 2.0148907e-26)
(-0.0029086835 -1.1010893e-07 3.940875e-26)
(-0.0028671308 -1.2019023e-07 3.8206574e-27)
(-0.0028251413 -1.3060621e-07 2.5262012e-25)
(-0.0027827532 -1.4011907e-07 -1.1186599e-25)
(-0.002740006 -1.5009625e-07 -6.0377969e-25)
(-0.002696934 -1.5915207e-07 1.1602009e-24)
(-0.0026535746 -1.6849184e-07 -1.6793524e-24)
(-0.0026099644 -1.7711025e-07 2.8603251e-26)
(-0.0025661392 -1.8560202e-07 8.9536931e-25)
(-0.0025221338 -1.9385462e-07 -2.5413418e-25)
(-0.0024779821 -2.016589e-07 6.0836154e-25)
(-0.0024337186 -2.0953085e-07 -2.5655299e-25)
(-0.0023893747 -2.1678653e-07 -1.6406094e-26)
(-0.0023449824 -2.2414834e-07 -2.9100505e-25)
(-0.0023005694 -2.3092003e-07 -2.9906767e-25)
(-0.0022561651 -2.3786533e-07 -2.8356138e-25)
(-0.0022117975 -2.4431229e-07 1.0776769e-24)
(-0.0021674917 -2.5060339e-07 7.0171559e-25)
(-0.0021232778 -2.5664935e-07 1.1526513e-24)
(-0.0020791742 -2.624542e-07 -4.5668422e-25)
(-0.0020352139 -2.6792493e-07 -1.2928743e-24)
(-0.0019914069 -2.7330355e-07 -3.1319768e-24)
(-0.001947791 -2.783143e-07 6.1772991e-17)
(-0.0019043688 -2.8337046e-07 2.9588048e-20)
(-0.0018611808 -2.878757e-07 -6.3191543e-17)
(-0.0018182229 -2.9257942e-07 -4.8167497e-24)
(-0.0017755363 -2.9658797e-07 7.0335685e-25)
(-0.0017331141 -3.007846e-07 -8.4016665e-24)
(-0.0016910015 -3.0448663e-07 8.6954038e-24)
(-0.0016491885 -3.0758366e-07 8.0634064e-25)
(-0.0016077366 -3.1029748e-07 -7.9272026e-24)
(-0.0015666204 -3.1346666e-07 4.3972348e-24)
(-0.0015259047 -3.1606253e-07 -4.8427778e-24)
(-0.0014855388 -3.1929743e-07 7.1429832e-24)
(-0.0014456091 -3.2157983e-07 -1.8280129e-24)
(-0.0014060454 -3.2427603e-07 -3.5880281e-24)
(-0.0013669665 -3.2614306e-07 1.1528149e-24)
(-0.0013282659 -3.2862424e-07 4.6559911e-24)
(-0.0012901039 -3.3064104e-07 -5.4013377e-24)
(-0.0012523184 -3.3305899e-07 4.7248688e-24)
(-0.001215126 -3.3512397e-07 -5.1604806e-24)
(-0.0011782924 -3.3714642e-07 2.6479748e-24)
(-0.0011421194 -3.3887839e-07 3.0248212e-24)
(-0.0011062779 -3.4041965e-07 4.9072739e-24)
(-0.0010711843 -3.4170618e-07 -5.6195647e-24)
(-0.0010363831 -3.4294876e-07 -3.8661322e-24)
(-0.0010024383 -3.4379409e-07 4.9772523e-24)
(-0.00096872296 -3.4454502e-07 -1.0597662e-23)
(-0.00093600528 -3.4448188e-07 9.8657857e-24)
(-0.0009034319 -3.4467778e-07 -5.8516413e-24)
(-0.00087204867 -3.4371388e-07 5.0982741e-24)
(-0.00084069596 -3.4336852e-07 -5.9303965e-24)
(-0.00081078375 -3.4119078e-07 -4.0848844e-24)
(-0.00078074964 -3.4051276e-07 3.2346148e-24)
(-0.00075249988 -3.3730867e-07 -4.136519e-24)
(-0.00072393504 -3.3682023e-07 1.0653911e-23)
(-0.00069760927 -3.3326462e-07 -6.4757272e-24)
(-0.00067069893 -3.3372998e-07 5.6728163e-24)
(-0.00064662755 -3.2937698e-07 -9.7185431e-24)
(-0.00062162506 -3.2988424e-07 9.0961167e-25)
(-0.00060027138 -3.2368299e-07 3.3680877e-24)
(-0.0005775474 -3.2392206e-07 3.7811829e-24)
(-0.00055955999 -3.1518999e-07 -1.4422404e-23)
(-0.00053967183 -3.1580743e-07 8.4160868e-17)
(-0.00052595266 -3.0489624e-07 8.4668928e-17)
(-0.00050969338 -3.0630445e-07 -4.3031263e-24)
(-0.00050143362 -2.9220337e-07 -6.4054802e-24)
(-0.00048992299 -2.9407195e-07 5.5896881e-24)
(-0.00048862891 -2.7607003e-07 1.0170062e-24)
(-0.00048334904 -2.7923285e-07 -1.849232e-24)
(-0.00049055132 -2.5896824e-07 -8.6879901e-17)
(-0.00049141988 -2.7202994e-07 -8.7394472e-17)
(-0.00050283291 -5.9989336e-06 -1.5651959e-20)
(-0.00051183358 -2.6363335e-05 1.6242711e-19)
(-0.00051515425 -4.7435397e-05 7.3700631e-20)
(-0.00052137186 -6.9039949e-05 -4.7792709e-19)
(-0.0005137541 -8.8517904e-05 -7.9567768e-20)
(-0.00050822276 -0.00010764109 -5.3266964e-19)
(-0.00048995476 -0.00012283279 3.5624011e-20)
(-0.00047226244 -0.00013654119 -5.5601367e-21)
(-0.00044366974 -0.00014499621 1.9756295e-19)
(-0.00041404942 -0.00015066192 -1.5535279e-19)
(-0.00037504417 -0.00015003031 5.0646001e-19)
(-0.00033351983 -0.00014519895 -3.4516201e-19)
(-0.00028344393 -0.00013304481 -9.3838162e-20)
(-0.00022930463 -0.00011509608 -1.724659e-19)
(-0.00016642805 -8.8444931e-05 9.8033048e-19)
(-9.7310863e-05 -5.3747086e-05 2.1468191e-19)
(-1.6854003e-05 -7.4488624e-06 -8.3788034e-19)
(7.0619269e-05 4.8031291e-05 -9.1999692e-19)
(0.00016851401 0.00011476247 -1.4710191e-19)
(0.00027394737 0.00019067679 7.0911133e-20)
(0.00038963352 0.00027734703 -9.8995924e-19)
(0.00051332262 0.00037280638 -6.6136066e-20)
(0.00064718185 0.00047815465 -1.8002771e-19)
(0.00078895428 0.00059111531 -1.1803266e-18)
(0.0009400752 0.00071209878 1.7920434e-19)
(0.0010976411 0.00083809887 9.6998645e-19)
(0.0012618253 0.00096830757 7.0342036e-19)
(0.0014263441 0.0010971433 -2.6348092e-19)
(0.0015842483 0.0012211418 -1.3051361e-19)
(0.0017384132 0.0013441708 -1.2104597e-19)
(0.0018907035 0.0014679952 2.4703796e-19)
(0.0020388987 0.001591137 8.681161e-19)
(0.0021875958 0.001717485 -9.4350847e-19)
(0.0023119195 0.001827417 2.5293328e-19)
(0.0024440887 0.0019468342 2.6220568e-20)
(0.0025898589 0.0020809311 2.3852474e-19)
(0.0027529522 0.0022328633 1.4115827e-19)
(0.0029374865 0.0024068528 -6.6183232e-20)
(0.0031421089 0.0026025415 3.3361533e-19)
(0.0033815412 0.002833186 -3.9900568e-20)
(0.0036661171 0.0031061785 -6.9593592e-19)
(0.0040457314 0.0034500436 -1.6641196e-20)
(0.0044707666 0.0038115446 -4.5192643e-19)
(0.0049884448 0.004225253 4.2018454e-19)
(0.0055556492 0.0046430999 3.4563509e-20)
(0.0062577726 0.0051247933 5.1164087e-20)
(0.0070267263 0.0055937274 -1.1868222e-19)
(0.0080139438 0.0061495482 7.1693945e-20)
(0.0091033061 0.0066608599 4.76818e-20)
(0.010563088 0.0072749313 -1.9733113e-20)
(0.012141731 0.0077320355 1.2855109e-19)
(0.014168152 0.0081600613 -9.4880169e-20)
(0.016031719 0.0080862352 -3.4994965e-19)
(0.017959454 0.0075837795 -4.217263e-19)
(0.01816826 0.0060504193 -8.308576e-20)
(0.017269349 0.0043334586 1.257889e-19)
(0.014807506 0.002646347 -1.5786635e-19)
(0.012614965 0.0014855689 -9.6993614e-20)
(0.0092659569 0.00063465444 -2.0597475e-20)
(0.0077612189 0.00024359947 -3.0612475e-20)
(0.0047697178 3.3910436e-05 -1.8566268e-20)
(0.0050519307 -2.7714957e-05 -1.0662418e-20)
(0.0024328348 -1.1080193e-05 -1.8242293e-21)
(0.016202711 6.0134367e-05 1.4285509e-21)
(0.012407884 5.1007465e-05 3.6405466e-21)
(0.020257278 -0.0001356619 -3.9738923e-21)
(0.016061485 -0.00048801174 3.4724694e-20)
(0.017695707 -0.0011829108 5.0607578e-22)
(0.01035176 -0.0011778399 5.9921178e-20)
(0.0067723093 -0.0011777959 -2.5009583e-20)
(-0.0014997502 0.00041667598 4.7460648e-20)
(-0.0044743637 0.0015124386 3.7086044e-20)
(-0.0068613365 0.0029225766 -3.2588409e-20)
(-0.0057194197 0.0028999942 -1.0172061e-20)
(-0.0050725479 0.0029395538 3.2760999e-21)
(-0.0037671012 0.0024118107 7.6466267e-20)
(-0.0033146412 0.0022992998 1.1743793e-20)
(-0.0027117869 0.0019982427 -3.1943522e-20)
(-0.0025434143 0.0019672549 1.4716197e-20)
(-0.0022345077 0.0017920421 -8.3129365e-21)
(-0.0021527923 0.0017766714 -3.1726395e-21)
(-0.0019677611 0.0016562488 -8.7145673e-21)
(-0.0018842171 0.001607183 2.4086059e-21)
(-0.0017424845 0.0014951966 -3.3340362e-21)
(-0.0016592923 0.0014237759 2.7778786e-21)
(-0.0015513516 0.0013219814 3.256941e-21)
(-0.0015020476 0.0012655023 6.949733e-21)
(-0.0014494264 0.0012068509 -1.8480768e-21)
(-0.0014297278 0.0011775237 -2.4436641e-21)
(-0.0014126896 0.0011515304 -3.3808359e-21)
(-0.0014212744 0.0011476341 1.6447258e-21)
(-0.0014379732 0.0011510248 7.1280955e-22)
(-0.0014773466 0.0011733219 3.6290924e-21)
(-0.0015291174 0.0012059449 -5.9218631e-21)
(-0.0016015515 0.0012553866 -3.7195907e-21)
(-0.0016881654 0.0013163846 -7.1078382e-22)
(-0.0017928049 0.0013919963 -1.4384447e-21)
(-0.0019087405 0.0014770064 -4.2481409e-23)
(-0.0020335687 0.0015697477 4.7081408e-21)
(-0.002152635 0.0016568216 3.7091655e-21)
(-0.0022687717 0.0017362332 1.505582e-22)
(-0.0023833576 0.0018078141 2.1721406e-21)
(-0.002494499 0.0018692431 1.6988588e-22)
(-0.0026014206 0.0019190877 6.3529709e-25)
(-0.0027011 0.0019544486 -1.4783204e-21)
(-0.0027922296 0.0019737851 -5.3648896e-22)
(-0.0028707651 0.0019737173 -5.9898399e-22)
(-0.0029361553 0.0019538047 1.6747848e-21)
(-0.0029833472 0.001910782 -1.121672e-20)
(-0.0030170529 0.0018482065 4.0117747e-21)
(-0.0030340169 0.0017646002 -3.2610906e-21)
(-0.0030554748 0.0016741423 -3.6502337e-22)
(-0.0030739912 0.0015774884 -3.3370545e-21)
(-0.0030861969 0.0014745723 2.3713253e-21)
(-0.0030799878 0.0013606561 -1.2737142e-20)
(-0.0030663227 0.001242284 -8.9791782e-22)
(-0.0030217987 0.0011115959 2.8880556e-21)
(-0.002975416 0.0009819097 -7.7858531e-22)
(-0.0028814239 0.00084003887 7.6184177e-21)
(-0.0028000566 0.00070715439 -6.8713082e-21)
(-0.0026510628 0.00056473569 4.7626045e-21)
(-0.0025604425 0.00044325466 -1.0493382e-21)
(-0.0023914777 0.0003177063 5.8173425e-23)
(-0.0023945979 0.0002212818 1.2108871e-23)
(-0.0023296036 0.00012164218 -1.0951641e-21)
(-0.0027989643 3.8981549e-05 2.312449e-22)
(-0.0037058631 7.0684262e-06 -5.0818994e-25)
(-0.0043210172 5.8695033e-06 -8.58171e-27)
(-0.0049378926 5.2440014e-06 -1.7186535e-25)
(-0.0054408635 4.7560111e-06 5.7420429e-25)
(-0.0059340553 4.285215e-06 -3.5342404e-25)
(-0.0063490359 3.9055555e-06 1.2236765e-25)
(-0.0067495255 3.5488032e-06 1.1711452e-25)
(-0.007096009 3.2618981e-06 1.0350541e-25)
(-0.0074278236 2.9948553e-06 -3.973655e-25)
(-0.0077218539 2.7772537e-06 1.5128176e-25)
(-0.0080024548 2.5754897e-06 6.962103e-26)
(-0.0082560365 2.4073879e-06 3.7088556e-26)
(-0.008497601 2.2497819e-06 -3.5212945e-25)
(-0.0087189357 2.1116238e-06 1.8186747e-25)
(-0.0089288409 1.9765151e-06 -4.012776e-26)
(-0.0091219078 1.852329e-06 1.0181234e-26)
(-0.0093048199 1.7368307e-06 1.1492124e-25)
(-0.0094742821 1.6361322e-06 1.4988571e-26)
(-0.0096343417 1.539258e-06 -3.5763694e-26)
(-0.0097832387 1.4489119e-06 -9.1498943e-26)
(-0.0099233221 1.361385e-06 -1.5185881e-25)
(-0.010053586 1.2776601e-06 -2.1660867e-25)
(-0.010175464 1.1956719e-06 -2.8554172e-25)
(-0.010288345 1.1162669e-06 6.5522126e-25)
(-0.010393184 1.0382898e-06 1.4270231e-25)
(-0.010489605 9.621866e-07 1.1725387e-24)
(-0.010578317 8.8527438e-07 -1.8675577e-24)
(-0.010658691 8.0897561e-07 1.3708108e-24)
(-0.010731688 7.4132434e-07 -3.6475515e-25)
(-0.010796103 6.9023769e-07 -1.4346608e-24)
(-0.010857541 6.3860654e-07 -6.2074312e-25)
(-0.010912195 5.7678728e-07 5.946016e-25)
(-0.010960425 5.0913391e-07 3.7872595e-25)
(-0.011000823 4.3692706e-07 1.1488645e-24)
(-0.011035205 3.740864e-07 9.3942974e-25)
(-0.011062985 3.2074488e-07 -2.7972703e-24)
(-0.011085424 2.7271964e-07 9.3924635e-25)
(-0.011103396 2.3356313e-07 6.09316e-25)
(-0.011117765 2.0703989e-07 1.6416618e-24)
(-0.011130437 1.9526728e-07 -3.5457869e-24)
(-0.011142569 1.9956543e-07 1.7216426e-24)
(-0.011156541 1.970111e-07 7.853886e-25)
(-0.01116878 1.529721e-07 1.4512527e-24)
(-0.011174518 -4.7302414e-09 -3.7191336e-24)
(-0.011153061 -1.6519731e-07 8.3450955e-25)
(-0.011124593 -2.4477933e-07 2.403707e-25)
(-0.011087205 -3.1556597e-07 3.0681667e-24)
(-0.011044153 -3.7115389e-07 -2.6226634e-24)
(-0.010995525 -4.2244266e-07 1.0634607e-24)
(-0.01094204 -4.7103583e-07 -9.83936e-27)
(-0.010883696 -5.1741464e-07 -3.3977039e-24)
(-0.010820875 -5.6218675e-07 6.4868644e-25)
(-0.010753608 -6.0542944e-07 7.6030246e-25)
(-0.010682166 -6.4728067e-07 4.7747305e-25)
(-0.010606617 -6.8760665e-07 1.2938061e-24)
(-0.010527184 -7.2659594e-07 1.1971537e-25)
(-0.010443959 -7.6413351e-07 -7.1800008e-25)
(-0.010357139 -8.004685e-07 4.1599698e-25)
(-0.010266832 -8.3529748e-07 -6.0250791e-25)
(-0.010173215 -8.6894678e-07 2.5833086e-25)
(-0.010076411 -9.0116011e-07 -4.0181103e-25)
(-0.0099765877 -9.3186425e-07 8.975108e-25)
(-0.0098738742 -9.6109937e-07 -1.6709163e-24)
(-0.0097684299 -9.8901294e-07 -3.666465e-25)
(-0.009660381 -1.0155784e-06 6.5951896e-25)
(-0.0095498784 -1.0409046e-06 1.2567138e-24)
(-0.0094370516 -1.0648796e-06 -1.6716829e-25)
(-0.0093220453 -1.0876114e-06 -3.6715388e-25)
(-0.0092049878 -1.1088482e-06 -6.8945388e-25)
(-0.0090860169 -1.1289758e-06 6.3590373e-25)
(-0.0089652645 -1.1476488e-06 -1.547405e-25)
(-0.0088428605 -1.1652119e-06 -1.2459674e-26)
(-0.0087189294 -1.1814382e-06 -7.8955142e-26)
(-0.0085935852 -1.196784e-06 1.0630007e-26)
(-0.0084669492 -1.2109205e-06 3.7544723e-25)
(-0.0083391331 -1.223938e-06 -6.8235258e-25)
(-0.0082102544 -1.2356676e-06 -1.1264637e-25)
(-0.0080804192 -1.2466139e-06 -4.6942919e-25)
(-0.007949738 -1.2562457e-06 1.3830967e-24)
(-0.0078183187 -1.2648885e-06 1.1695371e-24)
(-0.0076862652 -1.2723483e-06 -2.1464392e-25)
(-0.0075536828 -1.2788575e-06 -2.9346464e-24)
(-0.0074206691 -1.2842642e-06 -1.7468425e-24)
(-0.0072873284 -1.28874e-06 2.5619913e-24)
(-0.0071537515 -1.2922956e-06 3.9642362e-24)
(-0.0070200353 -1.2951221e-06 -6.7050312e-24)
(-0.0068862651 -1.2969213e-06 1.6565692e-24)
(-0.0067525286 -1.2979767e-06 -1.497867e-25)
(-0.0066189113 -1.2980746e-06 3.3169966e-24)
(-0.0064854872 -1.2974988e-06 -2.4334047e-24)
(-0.0063523469 -1.2960454e-06 1.1978944e-24)
(-0.0062195443 -1.2939307e-06 1.6821881e-24)
(-0.0060871791 -1.2911774e-06 3.6944683e-24)
(-0.0059552808 -1.2877152e-06 -9.2604471e-24)
(-0.0058239614 -1.2835856e-06 3.7153578e-24)
(-0.0056932305 -1.2789387e-06 -1.3859587e-25)
(-0.005563208 -1.2736273e-06 -5.6616105e-24)
(-0.005433885 -1.267784e-06 -2.0352055e-25)
(-0.0053053869 -1.2612448e-06 1.0180301e-23)
(-0.005177697 -1.2539417e-06 3.0817082e-24)
(-0.0050509526 -1.2457491e-06 -7.2552049e-24)
(-0.0049251177 -1.2370282e-06 9.111673e-24)
(-0.0048003641 -1.2277908e-06 1.2337292e-24)
(-0.0046766172 -1.2181859e-06 -8.1053681e-24)
(-0.0045540699 -1.2084191e-06 1.4381102e-23)
(-0.0044325845 -1.198234e-06 -1.0606557e-23)
(-0.0043124137 -1.1872401e-06 1.4095848e-24)
(-0.0041933514 -1.176153e-06 1.9685277e-24)
(-0.0040757448 -1.1643937e-06 -1.0086968e-23)
(-0.0039592793 -1.1526858e-06 1.1250945e-23)
(-0.0038444251 -1.1402416e-06 2.207164e-24)
(-0.0037307094 -1.1283656e-06 -5.7393674e-24)
(-0.0036187722 -1.1154244e-06 -5.828869e-24)
(-0.0035079318 -1.1030073e-06 -1.1281765e-23)
(-0.0033990746 -1.08893e-06 2.0528904e-23)
(-0.0032912366 -1.0757931e-06 1.4307181e-23)
(-0.0031856407 -1.0604966e-06 -3.0998422e-23)
(-0.0030809513 -1.0465457e-06 3.0896794e-23)
(-0.0029788271 -1.0297065e-06 -9.206486e-24)
(-0.0028774313 -1.0146447e-06 -1.4344237e-23)
(-0.002779024 -9.9578685e-07 -1.1835171e-23)
(-0.0026810959 -9.7923354e-07 -4.7098321e-25)
(-0.0025867248 -9.5804697e-07 2.6796577e-23)
(-0.0024925001 -9.4001118e-07 -1.9856657e-23)
(-0.0024025744 -9.1602251e-07 1.2496789e-23)
(-0.0023123492 -8.9599187e-07 -1.9958311e-23)
(-0.0022274367 -8.6854715e-07 2.2219884e-23)
(-0.0021416491 -8.468964e-07 -1.2282459e-23)
(-0.0020625169 -8.1582474e-07 7.331453e-24)
(-0.0019817262 -7.9218618e-07 2.4648942e-24)
(-0.0019093833 -7.5525797e-07 -1.249817e-23)
(-0.0018343744 -7.2769477e-07 1.3002726e-23)
(-0.0017702254 -6.8206215e-07 -1.8149713e-25)
(-0.0017021284 -6.4855138e-07 5.057325e-24)
(-0.0016481252 -5.9044043e-07 -2.3641789e-23)
(-0.0015886126 -5.4851093e-07 1.5984121e-23)
(-0.0015474503 -4.7380949e-07 5.1188299e-24)
(-0.0014989102 -4.2097305e-07 -2.3994413e-23)
(-0.0014741747 -3.2356774e-07 2.3642305e-23)
(-0.0014399813 -2.5647199e-07 1.6384272e-23)
(-0.0014361839 -1.2965821e-07 -2.4251225e-23)
(-0.0014207802 -4.990035e-08 1.9116126e-23)
(-0.0014425039 8.644372e-08 -2.712219e-23)
(-0.0014458689 9.8136247e-08 -2.8817376e-23)
(-0.001480932 -1.6819555e-05 4.0878404e-20)
(-0.0015082412 -7.7485106e-05 1.7798565e-20)
(-0.0015178632 -0.0001401874 8.6074884e-21)
(-0.0015356145 -0.00020450618 5.7127759e-19)
(-0.0015121179 -0.00026244566 2.8541016e-19)
(-0.0014944976 -0.00031920784 1.3134208e-18)
(-0.001438906 -0.00036418542 1.1610157e-18)
(-0.0013847714 -0.00040457724 -3.0187113e-19)
(-0.0012980968 -0.00042921415 -3.7561163e-19)
(-0.0012081501 -0.00044535257 8.2950007e-20)
(-0.0010901385 -0.00044258899 -2.6853927e-19)
(-0.00096444117 -0.00042710516 2.1542472e-19)
(-0.00081316853 -0.00038962296 -2.3988342e-19)
(-0.0006496769 -0.00033464448 -1.0659641e-19)
(-0.00046010439 -0.00025350835 -7.8011279e-19)
(-0.00025179689 -0.0001481308 1.8277028e-18)
(-9.8004517e-06 -7.9387469e-06 6.9400333e-19)
(0.00025308771 0.00015980754 4.5082581e-20)
(0.00054694225 0.00036130264 -4.7702442e-19)
(0.00086322747 0.00059034164 -5.6055092e-19)
(0.0012099523 0.00085161929 1.1916406e-18)
(0.0015804482 0.0011392512 -2.1579133e-18)
(0.0019811328 0.0014564858 4.812188e-19)
(0.0024053074 0.0017965426 -2.3866448e-19)
(0.0028572206 0.0021605743 3.9097712e-19)
(0.00332836 0.0025396426 -8.9091893e-19)
(0.0038191291 0.0029312276 -2.5332822e-19)
(0.0043109484 0.0033187672 -5.7410323e-19)
(0.0047835463 0.0036921184 3.6521937e-19)
(0.0052453056 0.0040627273 -7.9171328e-19)
(0.0057014773 0.0044357788 -4.3312111e-19)
(0.0061456469 0.0048070474 -7.7629293e-19)
(0.0065900177 0.0051873985 3.8728943e-20)
(0.006957891 0.0055168297 9.3346664e-19)
(0.007351757 0.0058758664 -3.6006122e-19)
(0.0077876943 0.0062795889 4.2018949e-19)
(0.0082751779 0.0067369769 -2.678528e-19)
(0.0088260678 0.0072604546 -1.3064789e-18)
(0.0094366085 0.0078492154 2.4306788e-19)
(0.01015016 0.00854253 1.4716086e-19)
(0.010997646 0.0093628082 1.2372536e-18)
(0.012124263 0.01039287 -2.156363e-19)
(0.013386737 0.011476766 2.2156983e-19)
(0.014922951 0.012714854 -3.7232989e-20)
(0.016608298 0.013966779 -1.3231744e-19)
(0.018689895 0.01540552 -3.5744257e-19)
(0.020973224 0.016808299 4.9948757e-20)
(0.023897533 0.018463612 -6.4814791e-20)
(0.027130428 0.019989333 7.4297707e-20)
(0.031453311 0.02181076 6.9082059e-21)
(0.036142502 0.023170374 -1.5656771e-19)
(0.042130603 0.024423453 2.4303007e-19)
(0.047655253 0.024193217 9.4052401e-20)
(0.053349903 0.022672559 5.0934317e-19)
(0.054109254 0.018133873 -2.6256269e-19)
(0.051641221 0.01303583 2.6430151e-19)
(0.044590945 0.0080180226 -1.2348104e-19)
(0.038170271 0.0045316918 -3.5861012e-19)
(0.028359068 0.0019708497 -9.1175716e-20)
(0.023804207 0.00077389987 8.5999059e-21)
(0.014968722 0.00012446884 2.9487037e-20)
(0.015625016 -7.019296e-05 5.5735798e-21)
(0.0081245032 -3.5386569e-05 6.623886e-21)
(0.02746181 8.5501832e-05 1.337651e-21)
(0.021618909 7.1418039e-05 -1.2470774e-21)
(0.034167435 -0.00024045389 -4.2546019e-22)
(0.027427399 -0.00082478084 -1.7479018e-20)
(0.029948247 -0.001975874 5.1425097e-20)
(0.017936528 -0.001999076 -3.9964757e-20)
(0.011857888 -0.0020085723 2.4820996e-20)
(-0.0019433143 0.0006054544 -1.0090069e-19)
(-0.0071846533 0.0024613511 5.1235801e-20)
(-0.011345665 0.0048424552 1.3317325e-21)
(-0.0095537518 0.0048410122 1.4296094e-20)
(-0.0084996048 0.0049176786 -1.7700328e-20)
(-0.0063380917 0.0040516267 -7.6026816e-20)
(-0.0055767239 0.0038635865 2.2949354e-20)
(-0.004570453 0.0033650761 3.4286989e-20)
(-0.0042840029 0.003311227 -3.932658e-21)
(-0.00376769 0.0030203418 3.4516317e-21)
(-0.0036279896 0.0029929117 6.7652408e-21)
(-0.0033187291 0.0027923887 1.8631542e-20)
(-0.0031775036 0.0027092384 -9.8744816e-21)
(-0.0029405677 0.002522278 -9.4505864e-21)
(-0.0028007266 0.0024021466 -1.5844034e-21)
(-0.0026203613 0.0022321329 3.7805311e-21)
(-0.0025374876 0.0021372345 -7.6890273e-21)
(-0.0024498049 0.0020393391 2.0196557e-22)
(-0.0024170477 0.0019903194 -2.9132539e-21)
(-0.0023891913 0.001947314 2.5596716e-21)
(-0.0024041518 0.0019412177 1.5604683e-21)
(-0.0024330104 0.0019476261 7.891175e-23)
(-0.0024997988 0.0019856663 1.7238319e-21)
(-0.0025875468 0.0020411957 -6.7194926e-22)
(-0.0027098549 0.0021248671 -6.2307236e-22)
(-0.0028559816 0.0022279773 -2.5087525e-21)
(-0.0030321773 0.0023554675 1.0335037e-22)
(-0.003227221 0.0024986361 -5.7713234e-21)
(-0.0034370304 0.0026545475 -4.2368135e-21)
(-0.0036373121 0.0028009845 -8.4640398e-22)
(-0.0038326192 0.0029344882 2.2421164e-22)
(-0.0040252632 0.0030547221 3.0468115e-22)
(-0.0042121083 0.0031578252 -7.5624701e-22)
(-0.0043918069 0.0032413611 5.1712182e-24)
(-0.0045594372 0.0033004996 2.3506991e-21)
(-0.0047127868 0.0033326683 2.3784905e-21)
(-0.004845111 0.0033322408 1.3698441e-23)
(-0.0049555349 0.0032984491 -1.3467511e-20)
(-0.0050357374 0.0032259591 5.678838e-21)
(-0.0050934905 0.0031206076 7.7978786e-21)
(-0.0051235509 0.0029801662 7.1997225e-21)
(-0.0051612194 0.0028281519 1.2017528e-21)
(-0.0051942338 0.0026656683 -3.29391e-21)
(-0.0052167794 0.0024924627 1.2462091e-20)
(-0.005209039 0.0023009153 3.3566136e-21)
(-0.0051887902 0.0021015733 1.5672873e-21)
(-0.0051176897 0.0018817663 1.4187088e-20)
(-0.0050434295 0.0016631867 -8.3005737e-21)
(-0.0048912215 0.0014245758 -9.1045183e-21)
(-0.0047595837 0.0012002757 2.502403e-21)
(-0.0045171815 0.00096050013 -2.7909945e-21)
(-0.0043706469 0.0007547749 2.1464222e-21)
(-0.0040981981 0.00054324995 2.8840955e-21)
(-0.0041103025 0.00037937812 1.3772042e-23)
(-0.0040197446 0.00021226946 6.7693063e-23)
(-0.0048122844 7.5189623e-05 -3.3331991e-22)
(-0.0063210125 2.1195961e-05 4.9541439e-25)
(-0.0073532683 1.7421181e-05 -2.7797898e-27)
(-0.0083842325 1.5660379e-05 -1.3693604e-25)
(-0.0092267444 1.4066061e-05 3.7629357e-25)
(-0.010050058 1.2712105e-05 -1.6265466e-25)
(-0.010744332 1.1496741e-05 -1.7637702e-25)
(-0.011412843 1.0461555e-05 3.7403446e-25)
(-0.01199208 9.5496614e-06 -1.8779878e-25)
(-0.012545831 8.7668517e-06 -1.7508268e-25)
(-0.013037065 8.0798023e-06 -1.505301e-25)
(-0.013505248 7.4827276e-06 9.7371799e-26)
(-0.013928657 6.9543591e-06 2.5487303e-26)
(-0.014331591 6.4834725e-06 3.5544921e-26)
(-0.01470094 6.0516489e-06 -9.3829416e-26)
(-0.015050939 5.6454898e-06 -1.827695e-26)
(-0.015372999 5.2713182e-06 9.4832935e-27)
(-0.015678015 4.9285843e-06 -7.6712807e-26)
(-0.015960338 4.6120045e-06 5.8029086e-26)
(-0.016226778 4.3175951e-06 3.803752e-25)
(-0.016474603 4.0402456e-06 -2.6637386e-25)
(-0.016707595 3.7753781e-06 -1.4202256e-25)
(-0.016924163 3.5209165e-06 7.5266231e-25)
(-0.017126631 3.2741667e-06 -5.6739379e-25)
(-0.017314035 3.0351776e-06 3.9492394e-25)
(-0.017487927 2.8020331e-06 -2.6508257e-25)
(-0.017647724 2.5749957e-06 -1.4639205e-25)
(-0.01779459 2.3475153e-06 5.4997192e-25)
(-0.017927561 2.1216567e-06 6.6637719e-25)
(-0.018047978 1.9021965e-06 -2.4534744e-24)
(-0.018153475 1.744595e-06 1.9032694e-24)
(-0.018254537 1.6051262e-06 -5.3159176e-25)
(-0.018344404 1.4238565e-06 -1.8291644e-24)
(-0.018423465 1.2261414e-06 7.8400945e-25)
(-0.018489557 1.0294708e-06 2.6862699e-24)
(-0.018545809 8.4835779e-07 -4.931668e-25)
(-0.018590544 6.8126628e-07 -7.700434e-25)
(-0.018626311 5.4122977e-07 -6.7064432e-25)
(-0.018654661 4.2886646e-07 -7.5665206e-25)
(-0.018677007 3.5411642e-07 1.5678038e-24)
(-0.018696507 3.2348125e-07 -7.9995069e-25)
(-0.018715161 3.4163241e-07 -1.1493189e-24)
(-0.018736983 3.4322178e-07 1.8266553e-24)
(-0.018756441 2.2214014e-07 -9.482866e-25)
(-0.018765383 -2.4656672e-07 -1.0410425e-24)
(-0.01872788 -7.2063607e-07 1.0244149e-24)
(-0.018678325 -9.4792613e-07 1.7740484e-24)
(-0.018613986 -1.151303e-06 2.260612e-25)
(-0.018540162 -1.3093525e-06 -1.5030417e-24)
(-0.01845704 -1.4547224e-06 -1.2578756e-24)
(-0.018365795 -1.5907615e-06 4.1359633e-24)
(-0.018266439 -1.7209374e-06 -6.5453811e-24)
(-0.0181596 -1.8458965e-06 5.5590115e-24)
(-0.018045337 -1.9660556e-06 -4.7493487e-24)
(-0.017924098 -2.0819062e-06 1.8747044e-24)
(-0.017796003 -2.1930761e-06 8.8666354e-25)
(-0.017661419 -2.3005132e-06 2.2768267e-25)
(-0.017520509 -2.4033251e-06 -1.6476979e-24)
(-0.017373593 -2.5022828e-06 1.0209178e-24)