0.00043385 	3.20678e-11 	4.59255e-15 	7.58293e-30 	3.20678e-11 	-2.10853e-28 	3.20678e-11
0.00132759 	1.24326e-10 	1.1832e-13 	-2.14939e-28 	1.24327e-10 	-5.94953e-27 	1.24326e-10
0.00227498 	6.74574e-10 	1.30009e-12 	9.44335e-29 	6.74586e-10 	4.60415e-26 	6.7458e-10
0.00327924 	2.36153e-09 	8.17812e-12 	7.27256e-27 	2.36163e-09 	3.51237e-25 	2.36158e-09
0.00434378 	6.29163e-09 	3.53445e-11 	7.08439e-26 	6.29222e-09 	-9.85168e-25 	6.29193e-09
0.00547221 	1.40627e-08 	1.17973e-10 	-7.01607e-26 	1.40652e-08 	-7.99812e-24 	1.4064e-08
0.00666839 	2.78835e-08 	3.27015e-10 	-1.57511e-24 	2.78923e-08 	9.94313e-24 	2.78879e-08
0.00793636 	5.07219e-08 	7.87771e-10 	2.00604e-24 	5.07484e-08 	4.86808e-23 	5.07352e-08
0.00928045 	8.64679e-08 	1.69688e-09 	3.3347e-25 	8.65391e-08 	-5.82841e-23 	8.65036e-08
0.0107052 	1.40081e-07 	3.32496e-09 	-1.82725e-29 	1.40255e-07 	-7.49267e-24 	1.40168e-07
0.0122155 	2.17646e-07 	5.97809e-09 	-1.38983e-29 	2.18045e-07 	2.17326e-28 	2.17846e-07
0.0138164 	3.26213e-07 	9.87295e-09 	-5.29984e-29 	3.27067e-07 	-1.15314e-22 	3.2664e-07
0.0155135 	4.7319e-07 	1.48758e-08 	-2.29852e-23 	4.74918e-07 	-4.45129e-22 	4.74054e-07
0.0173124 	6.65091e-07 	2.01195e-08 	-6.55239e-23 	6.68407e-07 	1.19887e-21 	6.66749e-07
0.0192193 	9.05628e-07 	2.36803e-08 	1.59567e-22 	9.11671e-07 	3.56062e-21 	9.0865e-07
0.0212406 	1.19378e-06 	2.26843e-08 	8.25591e-22 	1.20423e-06 	-4.99721e-21 	1.19901e-06
0.0233833 	1.52301e-06 	1.41032e-08 	-1.13347e-21 	1.54018e-06 	-5.65163e-21 	1.53159e-06
0.0256546 	1.88256e-06 	-4.13238e-09 	-8.37206e-23 	1.90935e-06 	6.71666e-21 	1.89595e-06
0.0280623 	2.26031e-06 	-3.25321e-08 	1.74707e-22 	2.30016e-06 	2.65758e-21 	2.28023e-06
0.0306144 	2.64557e-06 	-7.03018e-08 	8.81613e-22 	2.70231e-06 	-7.44266e-21 	2.67393e-06
0.0333198 	3.0305e-06 	-1.16051e-07 	-2.98384e-21 	3.10827e-06 	-1.8377e-21 	3.06939e-06
0.0361875 	3.41028e-06 	-1.68483e-07 	1.77512e-21 	3.51341e-06 	1.25056e-20 	3.46185e-06
0.0392274 	3.78243e-06 	-2.26603e-07 	2.22607e-22 	3.91537e-06 	-5.47405e-21 	3.84891e-06
0.0424498 	4.14604e-06 	-2.89763e-07 	-4.85236e-23 	4.31339e-06 	-4.12314e-21 	4.22972e-06
0.0458656 	4.50119e-06 	-3.57714e-07 	-1.67621e-21 	4.70761e-06 	-1.54579e-20 	4.6044e-06
0.0494864 	4.84846e-06 	-4.30319e-07 	-6.21073e-21 	5.09871e-06 	2.84858e-20 	4.97359e-06
0.0533246 	5.18872e-06 	-5.07596e-07 	1.25002e-20 	5.48765e-06 	3.00381e-20 	5.33819e-06
0.0573931 	5.52292e-06 	-5.89751e-07 	3.63536e-21 	5.87546e-06 	-4.70813e-20 	5.69919e-06
0.0617059 	5.85206e-06 	-6.76988e-07 	-6.96222e-21 	6.26325e-06 	-9.8198e-21 	6.05766e-06
0.0662775 	6.17711e-06 	-7.69581e-07 	-1.00746e-21 	6.65206e-06 	2.52402e-20 	6.41459e-06
0.0711236 	6.49904e-06 	-8.67835e-07 	3.74797e-21 	7.04292e-06 	-4.52959e-21 	6.77098e-06
0.0762605 	6.81869e-06 	-9.72111e-07 	-2.84464e-21 	7.43677e-06 	3.07098e-21 	7.12773e-06
0.0817058 	7.13701e-06 	-1.08278e-06 	6.95309e-21 	7.83456e-06 	-5.46481e-21 	7.48579e-06
0.087478 	7.4549e-06 	-1.20026e-06 	-7.85321e-21 	8.23722e-06 	-1.81502e-20 	7.84606e-06
0.0935966 	7.7731e-06 	-1.32499e-06 	-7.83301e-22 	8.64546e-06 	1.54839e-20 	8.20927e-06
0.100083 	8.09257e-06 	-1.45745e-06 	-8.82455e-23 	9.06018e-06 	1.39761e-21 	8.57637e-06
0.106958 	8.41412e-06 	-1.59812e-06 	-8.48369e-23 	9.48205e-06 	6.76855e-22 	8.94808e-06
0.114246 	8.73865e-06 	-1.74752e-06 	3.74361e-22 	9.91183e-06 	7.30139e-21 	9.32524e-06
0.121971 	9.06713e-06 	-1.90621e-06 	2.49722e-21 	1.03503e-05 	-6.54776e-21 	9.70868e-06
0.13016 	9.40049e-06 	-2.0748e-06 	-6.58489e-21 	1.07979e-05 	-1.11328e-20 	1.00992e-05
0.138841 	9.73983e-06 	-2.25387e-06 	3.81609e-21 	1.12555e-05 	4.85205e-21 	1.04976e-05
0.148043 	1.00862e-05 	-2.44407e-06 	2.73241e-21 	1.17235e-05 	-1.73164e-20 	1.09049e-05
0.157797 	1.04407e-05 	-2.64608e-06 	-5.43803e-21 	1.22026e-05 	1.85013e-20 	1.13217e-05
0.168136 	1.08047e-05 	-2.8606e-06 	2.73144e-21 	1.26933e-05 	2.74956e-20 	1.17491e-05
0.179097 	1.11796e-05 	-3.08834e-06 	4.17181e-22 	1.31962e-05 	-2.1678e-20 	1.21879e-05
0.190715 	1.15668e-05 	-3.33004e-06 	3.43266e-21 	1.37117e-05 	-8.2614e-21 	1.26392e-05
0.20303 	1.19678e-05 	-3.58648e-06 	2.95593e-21 	1.42403e-05 	3.20587e-21 	1.3104e-05
0.216085 	1.23844e-05 	-3.8584e-06 	-6.74046e-21 	1.47823e-05 	8.85465e-21 	1.35833e-05
0.229923 	1.28181e-05 	-4.14655e-06 	-2.65131e-22 	1.53379e-05 	-5.29997e-21 	1.4078e-05
0.244592 	1.3271e-05 	-4.45163e-06 	-4.35192e-26 	1.59077e-05 	-5.35457e-22 	1.45893e-05
0.260142 	1.37448e-05 	-4.77444e-06 	1.94252e-25 	1.64915e-05 	1.44426e-21 	1.51181e-05
0.276625 	1.42414e-05 	-5.11548e-06 	-2.2796e-21 	1.70894e-05 	1.2396e-20 	1.56654e-05
0.294097 	1.47629e-05 	-5.47538e-06 	-2.06263e-20 	1.77014e-05 	-6.84116e-21 	1.62322e-05
0.312618 	1.53111e-05 	-5.85466e-06 	2.05008e-20 	1.8327e-05 	-1.93182e-20 	1.6819e-05
0.332251 	1.58877e-05 	-6.25336e-06 	2.34514e-21 	1.89658e-05 	1.03195e-20 	1.74268e-05
0.353063 	1.64941e-05 	-6.67158e-06 	2.39313e-25 	1.96168e-05 	1.9504e-21 	1.80555e-05
0.375123 	1.71319e-05 	-7.10905e-06 	-7.57287e-24 	2.02787e-05 	1.88435e-24 	1.87053e-05
0.398508 	1.78013e-05 	-7.56516e-06 	3.88926e-25 	2.09494e-05 	-2.21125e-21 	1.93754e-05
0.423296 	1.85024e-05 	-8.03864e-06 	9.01578e-21 	2.16262e-05 	-2.62608e-20 	2.00643e-05
0.449573 	1.92341e-05 	-8.52773e-06 	9.24686e-20 	2.23055e-05 	8.15775e-21 	2.07698e-05
0.477427 	1.99942e-05 	-9.02969e-06 	-8.7979e-20 	2.29821e-05 	4.28388e-20 	2.14882e-05
0.506952 	2.07783e-05 	-9.54071e-06 	-1.13733e-20 	2.36496e-05 	-1.97481e-20 	2.2214e-05
0.53825 	2.15798e-05 	-1.00559e-05 	-4.87776e-25 	2.43003e-05 	-5.10568e-22 	2.29394e-05
0.571427 	2.239e-05 	-1.05779e-05 	-1.29361e-20 	2.49222e-05 	1.10403e-20 	2.36548e-05
0.606595 	2.32056e-05 	-1.11391e-05 	-3.18947e-20 	2.549e-05 	-3.4415e-21 	2.43501e-05
0.643874 	2.40499e-05 	-1.15752e-05 	2.82891e-20 	2.59585e-05 	-1.79015e-20 	2.50068e-05
0.683391 	2.48849e-05 	-1.18833e-05 	9.02088e-21 	2.63233e-05 	5.89896e-21 	2.56026e-05
0.725279 	2.5612e-05 	-1.21251e-05 	-1.28903e-23 	2.65834e-05 	2.09412e-21 	2.60964e-05
0.769683 	2.61415e-05 	-1.22814e-05 	3.2027e-24 	2.66968e-05 	-4.20311e-24 	2.6419e-05
0.816751 	2.64115e-05 	-1.23239e-05 	-5.10128e-22 	2.65967e-05 	-1.42576e-23 	2.65042e-05
0.866645 	2.63856e-05 	-1.2233e-05 	-7.11057e-22 	2.62303e-05 	-1.9659e-23 	2.63079e-05
0.919534 	2.604e-05 	-1.19974e-05 	5.42877e-22 	2.55696e-05 	1.17465e-23 	2.58048e-05
0.975597 	2.5368e-05 	-1.16164e-05 	6.51015e-22 	2.46146e-05 	4.23358e-22 	2.49912e-05
1.03503 	2.43857e-05 	-1.1101e-05 	-6.02599e-21 	2.33938e-05 	1.7145e-21 	2.38895e-05
1.09802 	2.31379e-05 	-1.04752e-05 	-1.24999e-20 	2.19638e-05 	-7.9903e-22 	2.25507e-05
1.14865 	2.20544e-05 	-9.94543e-06 	1.22661e-20 	2.07802e-05 	-2.95457e-21 	2.14171e-05
1.18301 	2.12989e-05 	-9.58167e-06 	2.99303e-20 	1.99785e-05 	-2.43997e-21 	2.06385e-05
1.23559 	2.01634e-05 	-9.04179e-06 	2.76983e-20 	1.88015e-05 	9.89791e-23 	1.94822e-05
1.31062 	1.86236e-05 	-8.31941e-06 	-2.75185e-20 	1.72438e-05 	3.01692e-21 	1.79337e-05
1.39016 	1.71586e-05 	-7.64026e-06 	-1.98758e-20 	1.57945e-05 	7.99536e-22 	1.64768e-05
1.47447 	1.58098e-05 	-7.01845e-06 	-5.17491e-20 	1.44789e-05 	-3.60941e-22 	1.51444e-05
1.56124 	1.46072e-05 	-6.46295e-06 	5.82847e-20 	1.3314e-05 	-3.08106e-21 	1.39609e-05
1.64556 	1.35733e-05 	-5.9849e-06 	-5.21209e-21 	1.23092e-05 	1.06819e-21 	1.29412e-05
1.72509 	1.26913e-05 	-5.56781e-06 	1.87677e-20 	1.14336e-05 	-2.80303e-22 	1.20633e-05
1.80013 	1.19273e-05 	-5.15016e-06 	1.77544e-20 	1.06597e-05 	-6.20332e-23 	1.12939e-05
1.87091 	1.12427e-05 	-4.70595e-06 	-1.34809e-22 	9.97831e-06 	2.15568e-21 	1.061e-05
1.93769 	1.06149e-05 	-4.27352e-06 	-8.41496e-20 	9.37546e-06 	1.13655e-20 	9.99506e-06
2.00069 	1.00339e-05 	-3.85307e-06 	-4.80087e-19 	8.83812e-06 	-8.08558e-21 	9.43587e-06
2.06012 	9.49678e-06 	-3.44736e-06 	5.19067e-19 	8.35183e-06 	-1.90755e-20 	8.92407e-06
2.11618 	8.99884e-06 	-3.05793e-06 	7.87066e-20 	7.90885e-06 	1.70136e-20 	8.45347e-06
2.16907 	8.53588e-06 	-2.68559e-06 	-2.43957e-19 	7.50405e-06 	-3.01805e-21 	8.01991e-06
2.21896 	8.10619e-06 	-2.33058e-06 	2.55165e-19 	7.13304e-06 	-6.70254e-21 	7.61953e-06
2.26603 	7.70653e-06 	-1.99238e-06 	5.26138e-21 	6.79311e-06 	5.31303e-21 	7.25e-06
2.31043 	7.33553e-06 	-1.67094e-06 	4.54932e-23 	6.48092e-06 	5.42063e-23 	6.90829e-06
2.35232 	6.991e-06 	-1.36646e-06 	2.17469e-23 	6.19472e-06 	4.11278e-25 	6.59291e-06
2.39184 	6.67206e-06 	-1.07852e-06 	1.33497e-23 	5.93257e-06 	-4.09396e-21 	6.30216e-06
2.42912 	6.37698e-06 	-8.06663e-07 	1.30056e-19 	5.69335e-06 	-1.13059e-20 	6.03515e-06
2.46429 	6.10561e-06 	-5.50574e-07 	2.91852e-19 	5.47556e-06 	1.39609e-20 	5.7906e-06
2.49746 	5.85706e-06 	-3.09825e-07 	-2.53262e-19 	5.27838e-06 	1.38025e-20 	5.56789e-06
2.52876 	5.63133e-06 	-8.34754e-08 	-1.53397e-19 	5.10092e-06 	-7.0206e-21 	5.36625e-06
2.55829 	5.42797e-06 	1.29153e-07 	-1.22854e-21 	4.94275e-06 	-1.18437e-20 	5.18543e-06
2.57764 	5.30026e-06 	2.68008e-07 	4.93874e-20 	4.84438e-06 	-1.30038e-20 	5.07237e-06
2.59116 	5.21509e-06 	3.64683e-07 	1.91166e-19 	4.77942e-06 	-1.11996e-20 	4.99727e-06
2.61242 	5.08729e-06 	5.1614e-07 	2.63662e-19 	4.68296e-06 	8.57281e-21 	4.88515e-06
2.63721 	4.95003e-06 	6.9191e-07 	-5.91864e-20 	4.58126e-06 	1.97847e-20 	4.7657e-06
2.66059 	4.83511e-06 	8.56834e-07 	-1.63335e-19 	4.49847e-06 	-5.76645e-21 	4.66683e-06
2.68265 	4.74247e-06 	1.01151e-06 	5.02061e-20 	4.43471e-06 	-2.84683e-22 	4.58862e-06
2.70346 	4.67192e-06 	1.15703e-06 	-1.2392e-19 	4.39007e-06 	1.31881e-20 	4.53107e-06
2.7231 	4.62342e-06 	1.29416e-06 	-1.52532e-19 	4.36439e-06 	3.04484e-21 	4.49392e-06
2.74162 	4.59622e-06 	1.42346e-06 	-1.68882e-19 	4.35753e-06 	-3.79692e-20 	4.47691e-06
2.75909 	4.58965e-06 	1.54561e-06 	4.175e-19 	4.36895e-06 	-5.32357e-21 	4.47935e-06
2.77557 	4.60263e-06 	1.6609e-06 	-6.66609e-20 	4.39784e-06 	2.29793e-20 	4.50027e-06
2.79112 	4.63367e-06 	1.77e-06 	7.96622e-20 	4.44308e-06 	1.01551e-20 	4.53841e-06
2.80579 	4.68105e-06 	1.87311e-06 	-1.86107e-19 	4.50316e-06 	2.90919e-20 	4.5921e-06
2.81963 	4.74263e-06 	1.97035e-06 	-2.66299e-19 	4.57632e-06 	-3.6418e-20 	4.65942e-06
2.83268 	4.81592e-06 	2.06177e-06 	2.17736e-19 	4.66052e-06 	-2.856e-20 	4.73823e-06
2.845 	4.89866e-06 	2.14732e-06 	7.22928e-20 	4.75336e-06 	1.86096e-20 	4.826e-06
2.85662 	4.98811e-06 	2.22704e-06 	1.86935e-20 	4.85248e-06 	6.19669e-21 	4.92027e-06
2.86758 	5.08163e-06 	2.30217e-06 	-4.67618e-21 	4.95546e-06 	-1.02823e-20 	5.01853e-06
2.87792 	5.17671e-06 	2.37491e-06 	1.00413e-19 	5.05994e-06 	1.47092e-20 	5.11829e-06
2.88767 	5.27038e-06 	2.42543e-06 	-1.09126e-19 	5.1641e-06 	2.79649e-20 	5.21723e-06
2.89687 	5.36074e-06 	2.47002e-06 	-1.38744e-19 	5.26489e-06 	-2.70485e-20 	5.31282e-06
2.90555 	5.44424e-06 	2.5113e-06 	9.73089e-20 	5.35833e-06 	-1.83499e-20 	5.40131e-06
2.91374 	5.51705e-06 	2.54733e-06 	2.24223e-20 	5.44058e-06 	1.2455e-20 	5.47882e-06
2.92147 	5.57593e-06 	2.57686e-06 	-9.85594e-22 	5.50866e-06 	2.74289e-21 	5.54231e-06
2.92876 	5.61877e-06 	2.599e-06 	-2.53109e-22 	5.56052e-06 	-8.19564e-24 	5.58966e-06
2.93563 	5.6443e-06 	2.61308e-06 	4.37543e-22 	5.59493e-06 	1.34734e-23 	5.61964e-06
2.94212 	5.652e-06 	2.61869e-06 	-1.60843e-21 	5.6112e-06 	-5.57992e-23 	5.6316e-06
2.94824 	5.64165e-06 	2.61572e-06 	1.91949e-21 	5.60907e-06 	-1.45396e-21 	5.62535e-06
2.95401 	5.61331e-06 	2.60424e-06 	7.4024e-21 	5.58849e-06 	-1.57261e-20 	5.60088e-06
2.95945 	5.56715e-06 	2.58463e-06 	7.92062e-20 	5.54951e-06 	1.66929e-20 	5.55832e-06
2.96459 	5.50332e-06 	2.55648e-06 	-7.04565e-20 	5.49214e-06 	1.38567e-20 	5.49772e-06
2.96944 	5.42183e-06 	2.51991e-06 	1.67209e-21 	5.41636e-06 	-1.17066e-20 	5.41909e-06
2.97401 	5.32259e-06 	2.47496e-06 	-7.59587e-21 	5.32202e-06 	1.30449e-21 	5.32231e-06
2.97832 	5.20528e-06 	2.42121e-06 	-6.63636e-21 	5.20873e-06 	-1.29157e-21 	5.20701e-06
2.98239 	5.06934e-06 	2.35876e-06 	-1.34452e-26 	5.07591e-06 	-3.96722e-21 	5.07261e-06
2.98623 	4.91385e-06 	2.28708e-06 	8.59414e-21 	4.92275e-06 	-1.68595e-20 	4.9183e-06
2.98985 	4.73779e-06 	2.20544e-06 	5.58603e-20 	4.74821e-06 	1.8467e-20 	4.743e-06
2.99326 	4.53986e-06 	2.11359e-06 	-4.71777e-20 	4.55111e-06 	1.3508e-20 	4.54548e-06
2.99649 	4.31873e-06 	2.0109e-06 	-8.49313e-22 	4.33018e-06 	-1.24962e-20 	4.32446e-06
2.99953 	4.07316e-06 	1.89665e-06 	1.64653e-21 	4.08429e-06 	1.83984e-21 	4.07873e-06
3.00239 	3.80221e-06 	1.77047e-06 	-6.7004e-21 	3.81262e-06 	1.32829e-21 	3.80741e-06
3.0051 	3.50535e-06 	1.63079e-06 	-3.13276e-21 	3.5147e-06 	-1.61761e-21 	3.51003e-06
3.00765 	3.1822e-06 	1.46924e-06 	-2.96223e-23 	3.19025e-06 	6.70238e-22 	3.18622e-06
3.01006 	2.83427e-06 	1.29176e-06 	-1.98198e-21 	2.84092e-06 	1.079e-20 	2.83759e-06
3.01233 	2.46611e-06 	1.10038e-06 	-1.41195e-20 	2.47136e-06 	-1.02781e-20 	2.46874e-06
3.01447 	2.08609e-06 	9.00197e-07 	1.01571e-20 	2.09005e-06 	-7.72416e-21 	2.08807e-06
3.01649 	1.70686e-06 	7.00026e-07 	1.72029e-21 	1.70969e-06 	4.05237e-21 	1.70827e-06
3.0184 	1.34443e-06 	5.11945e-07 	4.88774e-22 	1.34632e-06 	-7.16387e-21 	1.34538e-06
3.0202 	1.01555e-06 	3.48651e-07 	4.86953e-21 	1.01674e-06 	5.73852e-21 	1.01614e-06
3.0219 	7.33844e-07 	2.19426e-07 	-2.87715e-21 	7.3453e-07 	3.55047e-21 	7.34187e-07
3.0235 	5.06507e-07 	1.26972e-07 	-2.27116e-22 	5.06874e-07 	-1.73218e-21 	5.0669e-07
3.02501 	3.33382e-07 	6.73177e-08 	-2.24523e-23 	3.3356e-07 	3.43168e-22 	3.33471e-07
3.02643 	2.08569e-07 	3.25627e-08 	-1.48648e-22 	2.08648e-07 	-2.49718e-22 	2.08608e-07
3.02778 	1.23204e-07 	1.42553e-08 	6.13019e-23 	1.23235e-07 	-2.46561e-22 	1.2322e-07
3.02905 	6.78992e-08 	5.56176e-09 	2.93539e-23 	6.79099e-08 	6.52118e-23 	6.79046e-08
3.03024 	3.42141e-08 	1.88213e-09 	-4.03035e-24 	3.42172e-08 	2.59077e-23 	3.42157e-08
3.03137 	1.52422e-08 	5.27811e-10 	-1.38244e-24 	1.52429e-08 	1.864e-25 	1.52426e-08
3.03244 	5.66687e-09 	1.13712e-10 	-1.99012e-25 	5.66699e-09 	-8.09987e-25 	5.66693e-09
3.03344 	1.58477e-09 	1.66141e-11 	2.62398e-26 	1.58478e-09 	-2.68311e-26 	1.58477e-09
3.03439 	2.76505e-10 	1.35988e-12 	-2.3405e-28 	2.76506e-10 	1.08307e-26 	2.76505e-10
3.03528 	3.97902e-11 	4.69791e-14 	-6.25323e-30 	3.97902e-11 	-2.12863e-28 	3.97902e-11
