0.00132759 	1.20892e-10 	2.74506e-13 	2.05777e-28 	1.20892e-10 	1.02611e-27 	1.20892e-10
0.00227498 	6.89378e-10 	3.27879e-12 	-6.96659e-28 	6.89385e-10 	5.8003e-27 	6.89382e-10
0.00327924 	2.46404e-09 	2.19005e-11 	4.29336e-27 	2.4641e-09 	-4.78488e-26 	2.46407e-09
0.00434378 	6.62823e-09 	9.8986e-11 	-1.32457e-28 	6.62863e-09 	-6.11704e-25 	6.62843e-09
0.00547221 	1.48892e-08 	3.43418e-10 	-3.20955e-25 	1.48909e-08 	-1.87948e-24 	1.489e-08
0.00666839 	2.96025e-08 	9.88418e-10 	-2.13877e-24 	2.96087e-08 	1.02475e-23 	2.96056e-08
0.00793636 	5.39212e-08 	2.47705e-09 	7.35643e-24 	5.39404e-08 	1.83979e-23 	5.39308e-08
0.00928045 	9.19476e-08 	5.57401e-09 	-2.31046e-25 	9.20001e-08 	-4.18207e-23 	9.19738e-08
0.0107052 	1.48844e-07 	1.14848e-08 	5.50192e-24 	1.48975e-07 	-9.67906e-24 	1.4891e-07
0.0122155 	2.30817e-07 	2.1923e-08 	1.43191e-24 	2.31121e-07 	-3.41784e-23 	2.30969e-07
0.0138164 	3.44827e-07 	3.8997e-08 	-1.72071e-23 	3.45489e-07 	1.81489e-24 	3.45158e-07
0.0155135 	4.97835e-07 	6.47122e-08 	-4.67071e-24 	4.99196e-07 	1.34831e-22 	4.98516e-07
0.0173124 	6.95476e-07 	9.99385e-08 	9.74753e-23 	6.98133e-07 	3.88238e-22 	6.96804e-07
0.0192193 	9.40309e-07 	1.43039e-07 	4.15509e-22 	9.4524e-07 	-2.79147e-21 	9.42775e-07
0.0212406 	1.23036e-06 	1.8904e-07 	-2.6715e-21 	1.23906e-06 	1.0174e-21 	1.23471e-06
0.0233833 	1.55888e-06 	2.30428e-07 	2.37858e-21 	1.57346e-06 	7.00751e-21 	1.56616e-06
0.0256546 	1.91575e-06 	2.59585e-07 	7.82315e-22 	1.93898e-06 	-1.06096e-21 	1.92736e-06
0.0280623 	2.28999e-06 	2.71405e-07 	5.22515e-21 	2.32523e-06 	-4.60689e-21 	2.30761e-06
0.0306144 	2.67193e-06 	2.64267e-07 	-5.5809e-21 	2.72301e-06 	-5.46168e-21 	2.69747e-06
0.0333198 	3.0544e-06 	2.39256e-07 	4.28482e-21 	3.12552e-06 	2.72673e-21 	3.08996e-06
0.0361875 	3.4328e-06 	1.98789e-07 	-7.79982e-21 	3.52841e-06 	-3.97759e-21 	3.4806e-06
0.0392274 	3.80467e-06 	1.45409e-07 	-1.14156e-21 	3.92934e-06 	5.63926e-21 	3.86701e-06
0.0424498 	4.16896e-06 	8.12906e-08 	-9.06148e-22 	4.32745e-06 	-2.38104e-21 	4.24821e-06
0.0458656 	4.52561e-06 	8.07296e-09 	-8.58904e-21 	4.72272e-06 	5.1134e-23 	4.62417e-06
0.0494864 	4.87504e-06 	-7.32014e-08 	1.90175e-21 	5.11568e-06 	-4.55353e-21 	4.99536e-06
0.0533246 	5.21799e-06 	-1.61797e-07 	-2.7186e-20 	5.50718e-06 	1.00674e-20 	5.36259e-06
0.0573931 	5.55533e-06 	-2.5733e-07 	3.74674e-20 	5.89813e-06 	1.41993e-20 	5.72673e-06
0.0617059 	5.88794e-06 	-3.59661e-07 	6.30183e-21 	6.28955e-06 	-9.27953e-21 	6.08875e-06
0.0662775 	6.21676e-06 	-4.68762e-07 	1.73983e-20 	6.68243e-06 	-5.36745e-21 	6.4496e-06
0.0711236 	6.54269e-06 	-5.84743e-07 	-1.43402e-20 	7.07774e-06 	-7.33796e-21 	6.81021e-06
0.0762605 	6.86658e-06 	-7.07678e-07 	-5.51205e-21 	7.47641e-06 	4.17383e-21 	7.1715e-06
0.0817058 	7.1893e-06 	-8.37894e-07 	-6.39265e-22 	7.87932e-06 	-2.77211e-23 	7.53431e-06
0.087478 	7.51168e-06 	-9.7575e-07 	-6.77402e-21 	8.28735e-06 	-8.27701e-21 	7.89952e-06
0.0935966 	7.83458e-06 	-1.1215e-06 	-4.02904e-20 	8.70134e-06 	8.48319e-21 	8.26796e-06
0.100083 	8.15878e-06 	-1.27552e-06 	4.43952e-20 	9.12204e-06 	1.21895e-20 	8.64042e-06
0.106958 	8.4852e-06 	-1.43834e-06 	4.26407e-21 	9.55025e-06 	-9.29856e-21 	9.01772e-06
0.114246 	8.81468e-06 	-1.6103e-06 	1.18731e-21 	9.98671e-06 	-1.02348e-21 	9.40069e-06
0.121971 	9.14814e-06 	-1.79187e-06 	3.83078e-25 	1.04321e-05 	-2.79423e-22 	9.79013e-06
0.13016 	9.48653e-06 	-1.98366e-06 	-6.25497e-23 	1.08872e-05 	1.68131e-21 	1.01869e-05
0.138841 	9.83079e-06 	-2.18611e-06 	7.7301e-21 	1.13526e-05 	8.89639e-21 	1.05917e-05
0.148043 	1.01821e-05 	-2.39983e-06 	4.54973e-20 	1.18291e-05 	-8.4672e-21 	1.10055e-05
0.157797 	1.05414e-05 	-2.62534e-06 	-4.99848e-20 	1.23173e-05 	-1.323e-20 	1.14293e-05
0.168136 	1.09101e-05 	-2.86328e-06 	-5.70397e-21 	1.28179e-05 	1.4644e-20 	1.1864e-05
0.179097 	1.12893e-05 	-3.11433e-06 	2.04862e-20 	1.33314e-05 	-6.62609e-22 	1.23103e-05
0.190715 	1.16805e-05 	-3.37904e-06 	-1.62725e-20 	1.38587e-05 	-6.73653e-21 	1.27696e-05
0.20303 	1.20851e-05 	-3.65807e-06 	-1.40672e-21 	1.44004e-05 	2.89675e-21 	1.32428e-05
0.216085 	1.25046e-05 	-3.95226e-06 	-1.40262e-21 	1.49571e-05 	1.07684e-21 	1.37308e-05
0.229923 	1.29405e-05 	-4.26205e-06 	1.97907e-21 	1.55294e-05 	8.22702e-21 	1.4235e-05
0.244592 	1.33947e-05 	-4.58817e-06 	2.75842e-20 	1.61181e-05 	-2.82846e-21 	1.47564e-05
0.260142 	1.38687e-05 	-4.93141e-06 	-2.43059e-20 	1.67238e-05 	-1.26551e-20 	1.52963e-05
0.276625 	1.43644e-05 	-5.29222e-06 	-3.28975e-21 	1.7347e-05 	1.41848e-20 	1.58557e-05
0.294097 	1.48833e-05 	-5.67106e-06 	1.94382e-20 	1.79884e-05 	-6.4827e-22 	1.64359e-05
0.312618 	1.54274e-05 	-6.06858e-06 	-1.6537e-20 	1.86484e-05 	-1.35136e-20 	1.70379e-05
0.332251 	1.59981e-05 	-6.48514e-06 	-3.34284e-21 	1.93271e-05 	6.55825e-21 	1.76626e-05
0.353063 	1.65969e-05 	-6.92078e-06 	-2.67381e-21 	2.00248e-05 	1.21876e-21 	1.83108e-05
0.375123 	1.72249e-05 	-7.37551e-06 	2.54046e-21 	2.07413e-05 	-1.92629e-21 	1.89831e-05
0.398508 	1.7883e-05 	-7.84894e-06 	-3.78708e-21 	2.14759e-05 	5.2317e-22 	1.96794e-05
0.423296 	1.85715e-05 	-8.3403e-06 	4.44331e-21 	2.22272e-05 	-9.33664e-22 	2.03993e-05
0.449573 	1.92899e-05 	-8.8483e-06 	7.7562e-21 	2.29928e-05 	-1.0778e-20 	2.11414e-05
0.477427 	2.00366e-05 	-9.37085e-06 	2.66951e-21 	2.37696e-05 	2.10029e-21 	2.1903e-05
0.506952 	2.08089e-05 	-9.90581e-06 	-8.98587e-21 	2.4553e-05 	1.76412e-20 	2.268e-05
0.53825 	2.16045e-05 	-1.04665e-05 	-1.15812e-21 	2.53325e-05 	-6.72631e-21 	2.34684e-05
0.571427 	2.24263e-05 	-1.10975e-05 	2.42609e-24 	2.60916e-05 	-8.22725e-22 	2.42612e-05
0.606595 	2.33264e-05 	-1.15196e-05 	-1.06168e-21 	2.67728e-05 	4.26572e-22 	2.50502e-05
0.643874 	2.42393e-05 	-1.1902e-05 	3.07832e-21 	2.74058e-05 	-4.69973e-22 	2.58212e-05
0.683391 	2.50811e-05 	-1.22463e-05 	-3.82493e-21 	2.79533e-05 	4.09666e-22 	2.65168e-05
0.725279 	2.57695e-05 	-1.25138e-05 	-9.09284e-21 	2.83349e-05 	7.60613e-22 	2.70523e-05
0.769683 	2.6231e-05 	-1.2668e-05 	5.48563e-21 	2.84605e-05 	-1.11545e-21 	2.7346e-05
0.816751 	2.64038e-05 	-1.26799e-05 	3.95055e-21 	2.82595e-05 	-4.80026e-22 	2.73317e-05
0.866645 	2.62405e-05 	-1.25306e-05 	4.19686e-24 	2.76901e-05 	7.82369e-22 	2.69652e-05
0.919534 	2.57151e-05 	-1.22125e-05 	-6.95673e-21 	2.67415e-05 	3.00325e-21 	2.62282e-05
0.975597 	2.48358e-05 	-1.17321e-05 	-4.16393e-20 	2.54385e-05 	1.63828e-21 	2.51372e-05
1.03503 	2.36555e-05 	-1.11127e-05 	4.51913e-20 	2.38468e-05 	-8.54418e-21 	2.37511e-05
1.09802 	2.22688e-05 	-1.03943e-05 	4.72932e-20 	2.20711e-05 	-4.46143e-22 	2.217e-05
1.1648 	2.07967e-05 	-9.62853e-06 	-4.67778e-20 	2.0241e-05 	6.40957e-21 	2.05191e-05
1.23559 	1.93577e-05 	-8.87161e-06 	-2.88061e-20 	1.84849e-05 	2.67423e-21 	1.89207e-05
1.31062 	1.80459e-05 	-8.16664e-06 	-1.251e-19 	1.68905e-05 	4.54032e-21 	1.7469e-05
1.39016 	1.6898e-05 	-7.48362e-06 	1.2233e-19 	1.54818e-05 	-1.06941e-20 	1.61903e-05
1.47447 	1.58738e-05 	-6.72202e-06 	2.74562e-20 	1.42632e-05 	9.60384e-22 	1.50677e-05
1.56124 	1.49615e-05 	-6.05248e-06 	-2.41177e-20 	1.32212e-05 	3.58644e-21 	1.40916e-05
1.64556 	1.41595e-05 	-5.49377e-06 	-1.46912e-19 	1.2329e-05 	3.98172e-21 	1.32444e-05
1.72509 	1.34519e-05 	-5.02349e-06 	1.06407e-19 	1.15412e-05 	-2.22977e-21 	1.24967e-05
1.80013 	1.28071e-05 	-4.60065e-06 	-2.95891e-19 	1.08293e-05 	6.14004e-21 	1.18182e-05
1.87091 	1.22024e-05 	-4.20364e-06 	3.67759e-19 	1.01755e-05 	-1.73339e-20 	1.1189e-05
1.93769 	1.16254e-05 	-3.82289e-06 	1.58888e-21 	9.56985e-06 	7.50558e-21 	1.05978e-05
2.00069 	1.10721e-05 	-3.4534e-06 	-1.85669e-19 	9.00753e-06 	2.37328e-21 	1.00397e-05
2.06012 	1.05409e-05 	-3.09295e-06 	1.90844e-19 	8.48748e-06 	-9.22735e-21 	9.51402e-06
2.11618 	1.00321e-05 	-2.74261e-06 	8.17355e-20 	8.0089e-06 	4.77409e-22 	9.02055e-06
2.16907 	9.54732e-06 	-2.40396e-06 	-8.68851e-22 	7.57032e-06 	1.31883e-21 	8.55878e-06
2.21896 	9.08672e-06 	-2.07798e-06 	8.40491e-22 	7.1703e-06 	-1.04298e-23 	8.12841e-06
2.26603 	8.65033e-06 	-1.76565e-06 	8.78221e-22 	6.80698e-06 	-1.07166e-23 	7.72878e-06
2.31043 	8.23887e-06 	-1.46776e-06 	5.00836e-24 	6.47764e-06 	1.59708e-25 	7.35839e-06
2.35232 	7.85202e-06 	-1.18446e-06 	-9.73423e-24 	6.1799e-06 	6.50159e-26 	7.01606e-06
2.39184 	7.48953e-06 	-9.16064e-07 	8.17154e-24 	5.91131e-06 	1.30359e-21 	6.70047e-06
2.42912 	7.15109e-06 	-6.62822e-07 	-5.49718e-20 	5.66953e-06 	2.97563e-21 	6.4103e-06
2.46429 	6.8363e-06 	-4.24364e-07 	-8.38845e-20 	5.45241e-06 	-2.13825e-21 	6.14433e-06
2.49746 	6.54484e-06 	-1.99963e-07 	7.7038e-20 	5.258e-06 	-4.30618e-21 	5.90144e-06
2.52876 	6.27645e-06 	1.05291e-08 	5.7761e-20 	5.08459e-06 	2.44613e-21 	5.68061e-06
2.55829 	6.03098e-06 	2.07268e-07 	-5.82766e-20 	4.93068e-06 	3.72137e-21 	5.48093e-06
2.57809 	5.87115e-06 	3.38242e-07 	-9.50002e-20 	4.83282e-06 	-1.76285e-22 	5.35207e-06
2.59161 	5.76535e-06 	4.27131e-07 	-4.01886e-20 	4.76944e-06 	-4.07688e-21 	5.26743e-06
2.61242 	5.60762e-06 	5.62961e-07 	5.93006e-20 	4.67676e-06 	-7.64157e-21 	5.14215e-06
2.63721 	5.42908e-06 	7.23016e-07 	1.53569e-19 	4.5751e-06 	-3.71399e-21 	5.00204e-06
2.66059 	5.27225e-06 	8.71985e-07 	1.15973e-19 	4.48952e-06 	7.58952e-21 	4.88087e-06
2.68265 	5.13685e-06 	1.01052e-06 	-1.07986e-19 	4.41947e-06 	1.00722e-20 	4.77818e-06
2.70346 	5.02243e-06 	1.13916e-06 	-1.35536e-19 	4.36452e-06 	1.11304e-22 	4.69352e-06
2.7231 	4.92855e-06 	1.25883e-06 	-7.00586e-20 	4.3242e-06 	-1.06748e-20 	4.62636e-06
2.74162 	4.85438e-06 	1.37045e-06 	1.43819e-19 	4.29818e-06 	-1.1646e-20 	4.57622e-06
2.75909 	4.79905e-06 	1.47446e-06 	1.78477e-19 	4.286e-06 	9.20633e-21 	4.54249e-06
2.77557 	4.7617e-06 	1.57166e-06 	-9.71115e-20 	4.28708e-06 	9.86017e-21 	4.5244e-06
2.79112 	4.74127e-06 	1.66277e-06 	-4.01762e-20 	4.30077e-06 	-2.18093e-21 	4.52105e-06
2.80579 	4.7366e-06 	1.74838e-06 	-2.95666e-20 	4.32634e-06 	-1.4502e-21 	4.53151e-06
2.81963 	4.74643e-06 	1.82926e-06 	-5.78131e-22 	4.36293e-06 	-5.50308e-21 	4.55467e-06
2.83268 	4.76927e-06 	1.90583e-06 	6.37127e-20 	4.40968e-06 	3.75756e-21 	4.58948e-06
2.845 	4.80376e-06 	1.97866e-06 	-6.09992e-20 	4.46556e-06 	1.83601e-21 	4.63467e-06
2.85662 	4.84841e-06 	2.04785e-06 	2.0903e-20 	4.52948e-06 	-9.89993e-21 	4.68894e-06
2.86758 	4.90166e-06 	2.11338e-06 	8.43436e-20 	4.60032e-06 	4.01826e-21 	4.751e-06
2.87792 	4.96199e-06 	2.17533e-06 	-3.35797e-20 	4.67688e-06 	3.15181e-21 	4.81945e-06
2.88767 	5.02793e-06 	2.23438e-06 	3.05128e-20 	4.75791e-06 	8.29991e-21 	4.89291e-06
2.89687 	5.09795e-06 	2.29129e-06 	-1.16336e-19 	4.8422e-06 	1.3271e-20 	4.97009e-06
2.90555 	5.17046e-06 	2.34188e-06 	-1.17966e-19 	4.92864e-06 	-1.44583e-20 	5.04956e-06
2.91374 	5.24373e-06 	2.38275e-06 	4.91014e-20 	5.01593e-06 	-8.43064e-21 	5.12983e-06
2.92147 	5.31602e-06 	2.41979e-06 	-9.97145e-21 	5.10171e-06 	1.29815e-21 	5.20887e-06
2.92876 	5.38457e-06 	2.45481e-06 	2.94716e-20 	5.18301e-06 	2.14458e-21 	5.28381e-06
2.93563 	5.44613e-06 	2.48655e-06 	-2.7113e-20 	5.25674e-06 	-2.43016e-21 	5.35144e-06
2.94212 	5.49754e-06 	2.51348e-06 	4.30146e-20 	5.31998e-06 	-4.82182e-21 	5.40876e-06
2.94824 	5.53598e-06 	2.5343e-06 	1.62229e-20 	5.37016e-06 	4.7726e-21 	5.45307e-06
2.95401 	5.55909e-06 	2.54799e-06 	2.14634e-22 	5.40499e-06 	1.72088e-21 	5.48204e-06
2.95945 	5.56484e-06 	2.55368e-06 	8.14826e-22 	5.4225e-06 	3.89526e-21 	5.49367e-06
2.96459 	5.55154e-06 	2.55031e-06 	-2.33882e-20 	5.42091e-06 	7.30883e-21 	5.48622e-06
2.96944 	5.51765e-06 	2.53732e-06 	-4.62472e-20 	5.39869e-06 	-7.30861e-21 	5.45817e-06
2.97401 	5.46186e-06 	2.51423e-06 	2.20955e-20 	5.35441e-06 	-2.91756e-21 	5.40813e-06
2.97832 	5.38292e-06 	2.48028e-06 	-1.79851e-20 	5.28671e-06 	-4.33421e-21 	5.33482e-06
2.98239 	5.2796e-06 	2.4349e-06 	3.72136e-20 	5.19428e-06 	-6.70835e-21 	5.23695e-06
2.98623 	5.15068e-06 	2.37747e-06 	1.94066e-20 	5.07577e-06 	6.53846e-21 	5.11324e-06
2.98985 	4.99491e-06 	2.30746e-06 	-5.7323e-27 	4.92986e-06 	6.76272e-21 	4.96238e-06
2.99326 	4.81101e-06 	2.22416e-06 	-1.26342e-20 	4.75521e-06 	5.25959e-21 	4.78311e-06
2.99649 	4.5978e-06 	2.12697e-06 	-2.08485e-20 	4.55056e-06 	-8.27657e-21 	4.57418e-06
2.99953 	4.35433e-06 	2.01557e-06 	1.84053e-20 	4.31491e-06 	-1.12096e-21 	4.33462e-06
3.00239 	4.08013e-06 	1.88964e-06 	-6.40356e-21 	4.04774e-06 	7.48586e-21 	4.06393e-06
3.0051 	3.77544e-06 	1.74942e-06 	-1.09682e-20 	3.74927e-06 	-1.12213e-20 	3.76235e-06
3.00765 	3.44153e-06 	1.59492e-06 	2.18232e-20 	3.4208e-06 	-5.61371e-21 	3.43117e-06
3.01006 	3.08055e-06 	1.42186e-06 	8.4761e-21 	3.06452e-06 	1.57476e-20 	3.07254e-06
3.01233 	2.69592e-06 	1.22336e-06 	-1.82959e-20 	2.68399e-06 	-7.59266e-21 	2.68995e-06
3.01447 	2.29536e-06 	1.01118e-06 	1.50929e-20 	2.28684e-06 	-5.7663e-21 	2.2911e-06
3.01649 	1.8916e-06 	7.9638e-07 	7.11892e-22 	1.88581e-06 	2.53799e-21 	1.88871e-06
3.0184 	1.50137e-06 	5.91075e-07 	2.5069e-21 	1.49764e-06 	-2.46682e-21 	1.49951e-06
3.0202 	1.14288e-06 	4.09148e-07 	2.85181e-21 	1.14063e-06 	6.90111e-21 	1.14176e-06
3.0219 	8.3189e-07 	2.61845e-07 	-4.58231e-21 	8.30633e-07 	1.51768e-21 	8.31262e-07
3.0235 	5.77907e-07 	1.53965e-07 	-4.85189e-22 	5.7726e-07 	-2.36219e-21 	5.77584e-07
3.02501 	3.82512e-07 	8.28218e-08 	2.76255e-22 	3.82207e-07 	-8.75887e-23 	3.82359e-07
3.02643 	2.40515e-07 	4.05884e-08 	-3.67421e-23 	2.40384e-07 	1.18785e-22 	2.4045e-07
3.02778 	1.42809e-07 	1.79959e-08 	-3.00637e-24 	1.42758e-07 	-4.99636e-23 	1.42784e-07
3.02905 	7.91991e-08 	7.12434e-09 	1.06888e-23 	7.9182e-08 	7.99562e-24 	7.91905e-08
