0.00043385 	-2.35417e-05 	-8.9707e-09 	1.17697e-18
0.00132759 	-7.03147e-05 	-1.39854e-08 	1.81862e-18
0.00227498 	-0.000116776 	-1.97856e-08 	-2.08211e-18
0.00327924 	-0.000162896 	-3.78308e-08 	-1.2364e-18
0.00434378 	-0.000208264 	-6.21512e-08 	2.07527e-24
0.00547221 	-0.000252398 	-9.10025e-08 	-7.69838e-19
0.00666839 	-0.00029473 	-1.2356e-07 	1.10118e-19
0.00793636 	-0.000334589 	-1.58387e-07 	2.25629e-18
0.00928045 	-0.000371188 	-1.93238e-07 	-7.75206e-19
0.0107052 	-0.000403608 	-2.2505e-07 	1.04009e-18
0.0122155 	-0.000430786 	-2.49814e-07 	3.39896e-18
0.0138164 	-0.000451526 	-2.62453e-07 	-3.76133e-18
0.0155135 	-0.000464547 	-2.56857e-07 	-1.96512e-18
0.0173124 	-0.000468616 	-2.26271e-07 	-2.01957e-18
0.0192193 	-0.00046276 	-1.64325e-07 	-2.05854e-18
0.0212406 	-0.000446565 	-6.68408e-08 	1.88255e-18
0.0233833 	-0.000420423 	6.59917e-08 	9.10113e-19
0.0256546 	-0.000385563 	2.28193e-07 	1.73199e-18
0.0280623 	-0.000343791 	4.08349e-07 	3.09324e-18
0.0306144 	-0.000297041 	5.91656e-07 	-2.44326e-19
0.0333198 	-0.000246994 	7.62434e-07 	-4.43801e-18
0.0361875 	-0.000194883 	9.05876e-07 	4.07312e-19
0.0392274 	-0.000141492 	1.00872e-06 	9.84631e-19
0.0424498 	-8.72458e-05 	1.05911e-06 	3.54066e-24
0.0458656 	-3.23207e-05 	1.0462e-06 	-1.53846e-18
0.0494864 	2.32646e-05 	9.59717e-07 	-3.23339e-18
0.0533246 	7.9588e-05 	7.89452e-07 	1.70537e-18
0.0573931 	0.000136785 	5.24851e-07 	-6.68406e-19
0.0617059 	0.000195022 	1.5492e-07 	1.74143e-18
0.0662775 	0.000254489 	-3.32012e-07 	8.85499e-19
0.0711236 	0.000315384 	-9.48449e-07 	1.7153e-23
0.0762605 	0.00037792 	-1.70781e-06 	2.22381e-23
0.0817058 	0.000442316 	-2.62446e-06 	1.40209e-23
0.087478 	0.000508801 	-3.71383e-06 	1.2611e-23
0.0935966 	0.000577615 	-4.99238e-06 	-1.31888e-19
0.100083 	0.00064901 	-6.47758e-06 	-5.4984e-19
0.106958 	0.000723255 	-8.18801e-06 	5.21921e-19
0.114246 	0.000800634 	-1.01432e-05 	5.45935e-19
0.121971 	0.000881454 	-1.23637e-05 	1.2725e-18
0.13016 	0.000966046 	-1.48707e-05 	-1.25031e-18
0.138841 	0.00105477 	-1.76863e-05 	-3.82501e-19
0.148043 	0.00114801 	-2.08328e-05 	-6.26822e-24
0.157797 	0.00124619 	-2.43328e-05 	-8.67723e-20
0.168136 	0.00134979 	-2.82086e-05 	-1.64994e-19
0.179097 	0.00145932 	-3.24817e-05 	2.32866e-21
0.190715 	0.00157535 	-3.71724e-05 	2.86455e-19
0.20303 	0.0016985 	-4.22986e-05 	1.27009e-18
0.216085 	0.00182951 	-4.78752e-05 	-1.18492e-18
0.229923 	0.00196913 	-5.39063e-05 	-1.09675e-19
0.244592 	0.00211828 	-6.03861e-05 	-2.21299e-23
0.260142 	0.00227794 	-6.73233e-05 	-2.74827e-24
0.276625 	0.00244922 	-7.47028e-05 	1.60956e-19
0.294097 	0.00263336 	-8.24963e-05 	1.11304e-18
0.312618 	0.00283177 	-9.0658e-05 	-1.10209e-18
0.332251 	0.00304604 	-9.91206e-05 	-1.83504e-19
0.353063 	0.00327796 	-0.00010779 	-3.8154e-24
0.375123 	0.00352954 	-0.000116538 	3.55903e-19
0.398508 	0.00380307 	-0.000125196 	2.32633e-18
0.423296 	0.00410111 	-0.000133543 	-2.25358e-18
0.449573 	0.00442661 	-0.000141348 	1.5627e-18
0.477427 	0.00478279 	-0.000148217 	-1.50029e-19
0.506952 	0.00517322 	-0.000153709 	-1.51901e-18
0.53825 	0.0056019 	-0.000157281 	-7.53322e-20
0.571427 	0.00607319 	-0.000158212 	7.23757e-20
0.606595 	0.0065922 	-0.000155634 	-1.71528e-19
0.643874 	0.00716932 	-0.000149242 	-9.51957e-19
0.683391 	0.00782636 	-0.000138669 	8.59503e-19
0.725279 	0.00858537 	-0.000123575 	1.42035e-19
0.769683 	0.0094554 	-0.000102604 	-5.67251e-22
0.816751 	0.0104347 	-7.44112e-05 	-1.19824e-22
0.856985 	0.0113033 	-4.58591e-05 	3.03544e-22
0.882662 	0.0118673 	-2.58724e-05 	8.27477e-22
0.919545 	0.0126851 	5.34137e-06 	-8.67392e-19
0.975622 	0.013936 	5.63909e-05 	-1.97933e-18
1.03506 	0.0152556 	0.000113906 	3.25142e-18
1.09807 	0.0166265 	0.000176255 	-6.92977e-19
1.16486 	0.0180251 	0.000241006 	2.74713e-19
1.23566 	0.0194208 	0.000304506 	1.60822e-18
1.31071 	0.0207816 	0.000362691 	-1.33982e-18
1.39026 	0.0220772 	0.000411834 	-1.65219e-19
1.47458 	0.0232834 	0.000448814 	1.32898e-21
1.56136 	0.0243544 	0.000471286 	7.41374e-22
1.64568 	0.0252567 	0.000480464 	-4.00598e-22
1.7152 	0.0259148 	0.000480394 	1.85318e-19
1.75383 	0.0262536 	0.000478049 	4.7306e-19
1.80032 	0.0266252 	0.000472358 	1.95593e-19
1.87118 	0.0271413 	0.000460057 	-2.6289e-19
1.93802 	0.0275694 	0.000445292 	-3.96498e-19
2.00106 	0.0279312 	0.000430115 	-1.00826e-18
2.06053 	0.0282421 	0.000415485 	1.1597e-18
2.11662 	0.0285099 	0.00040145 	3.0588e-19
2.16953 	0.0287394 	0.000387836 	1.21409e-18
2.21944 	0.0289346 	0.000374729 	-9.12853e-20
2.26652 	0.0290992 	0.000361994 	-1.43353e-18
2.31093 	0.0292362 	0.000349654 	-1.35353e-19
2.35282 	0.0293481 	0.000337731 	-3.04854e-22
2.39233 	0.0294367 	0.000326222 	3.74817e-23
2.42961 	0.0295039 	0.000315158 	-4.06228e-19
2.46477 	0.0295509 	0.000304537 	-4.694e-19
2.49793 	0.0295787 	0.000294351 	4.89642e-19
2.52922 	0.0295878 	0.000284588 	5.46049e-19
2.55874 	0.0295784 	0.000275232 	-7.4812e-23
2.57797 	0.0295624 	0.000269059 	1.86047e-22
2.59149 	0.0295441 	0.00026467 	2.48583e-22
2.61285 	0.029505 	0.000257657 	2.09889e-22
2.63764 	0.0294404 	0.000249403 	8.04538e-19
2.66101 	0.0293565 	0.000241483 	1.38912e-18
2.68307 	0.0292529 	0.000233877 	-1.3682e-18
2.70387 	0.0291289 	0.000226566 	1.31123e-18
2.72349 	0.0289841 	0.00021953 	-1.88392e-18
2.742 	0.0288181 	0.000212749 	-1.04124e-18
2.75946 	0.0286307 	0.000206201 	4.22115e-19
2.77593 	0.028422 	0.000199867 	3.1408e-18
2.79147 	0.0281919 	0.000193721 	-3.02143e-18
2.80612 	0.0279412 	0.000187742 	-1.29836e-18
2.81995 	0.0276703 	0.000181902 	-3.44113e-18
2.83299 	0.0273803 	0.000176177 	1.20509e-17
2.84529 	0.0270723 	0.000170548 	-6.80781e-18
2.85689 	0.0267477 	0.000164991 	-8.69503e-19
2.86784 	0.0264077 	0.000159486 	-7.36948e-19
2.87817 	0.0260536 	0.000154024 	-2.3505e-19
2.88791 	0.0256842 	0.000148569 	-4.89545e-19
2.8971 	0.0252982 	0.000143077 	-8.89529e-18
2.90577 	0.0248969 	0.000137526 	1.62632e-17
2.91395 	0.0244832 	0.00013191 	7.12294e-18
2.92166 	0.0240606 	0.000126231 	-4.89872e-18
2.92894 	0.0236313 	0.000120499 	-5.48947e-19
2.9358 	0.0231974 	0.000114723 	-7.45519e-18
2.94228 	0.0227599 	0.000108921 	-1.24243e-17
2.94839 	0.0223191 	0.000103108 	1.15397e-17
2.95415 	0.0218749 	9.73024e-05 	1.01799e-18
2.95959 	0.0214265 	9.15233e-05 	-5.75067e-18
2.96472 	0.0209731 	8.57901e-05 	4.37615e-18
2.96955 	0.0205131 	8.01234e-05 	-1.27713e-17
2.97412 	0.0200447 	7.45471e-05 	1.30403e-17
2.97842 	0.0195659 	6.90838e-05 	2.19524e-18
2.98249 	0.0190743 	6.37525e-05 	-1.3855e-22
2.98632 	0.0185672 	5.85714e-05 	1.92053e-22
2.98993 	0.0180419 	5.35556e-05 	1.47317e-23
2.99334 	0.0174953 	4.87231e-05 	3.50194e-23
2.99656 	0.0169245 	4.40906e-05 	2.25106e-18
2.99959 	0.0163263 	3.96726e-05 	1.81268e-17
3.00246 	0.0156979 	3.54821e-05 	-1.70206e-17
3.00516 	0.0150367 	3.15303e-05 	-3.06231e-18
3.0077 	0.0143394 	2.78214e-05 	-3.6619e-18
3.01011 	0.0136025 	2.43563e-05 	-1.47243e-17
3.01237 	0.0128238 	2.11358e-05 	-1.02008e-17
3.01451 	0.012004 	1.8163e-05 	2.67028e-17
3.01653 	0.0111463 	1.54393e-05 	1.26411e-18
3.01843 	0.0102581 	1.29656e-05 	-1.23727e-17
3.02023 	0.0093504 	1.07411e-05 	2.09126e-17
3.02192 	0.00843709 	8.76308e-06 	-3.71794e-17
3.02352 	0.00753245 	7.02613e-06 	2.64897e-17
3.02503 	0.00664891 	5.52144e-06 	3.96065e-18
3.02645 	0.0057955 	4.23698e-06 	-7.4693e-19
3.02779 	0.00497761 	3.15823e-06 	5.05786e-19
3.02906 	0.00419761 	2.26919e-06 	1.22999e-17
3.03025 	0.00345587 	1.55319e-06 	-1.13695e-17
3.03138 	0.00275161 	9.93516e-07 	-1.65263e-18
3.03244 	0.00208348 	5.73868e-07 	6.63908e-19
3.03344 	0.00144995 	2.79772e-07 	2.11727e-24
3.03439 	0.000849412 	1.00512e-07 	1.10275e-18
3.03528 	0.000278575 	1.99426e-08 	3.97351e-19
