/*--------------------------------*- C++ -*----------------------------------*\
| =========                 |                                                 |
| \\      /  F ield         | OpenFOAM: The Open Source CFD Toolbox           |
|  \\    /   O peration     | Version:  2.4.0                                 |
|   \\  /    A nd           | Web:      www.OpenFOAM.org                      |
|    \\/     M anipulation  |                                                 |
\*---------------------------------------------------------------------------*/
FoamFile
{
    version     2.0;
    format      ascii;
    class       volScalarField;
    location    "380";
    object      omega;
}
// * * * * * * * * * * * * * * * * * * * * * * * * * * * * * * * * * * * * * //

dimensions      [0 0 -1 0 0 0 0];

internalField   nonuniform List<scalar> 
19698
(
227134.93
220644.17
214005.21
207254.37
200428.97
193566.99
186709.47
179903.22
173262.16
167044.3
161298.04
156019.07
151204.62
146855.25
142973.85
139564.67
136634.53
134192.24
132247.52
130811.23
129895.27
129511.99
129657.27
129783.85
129783.85
129783.85
129783.85
129783.85
129783.85
129783.85
129783.85
129783.85
129783.85
129783.85
129783.85
129783.85
129783.85
129783.85
129783.85
129783.85
129783.85
129783.85
129783.85
129783.85
129783.85
129783.85
129783.85
129783.85
129783.85
129783.85
129783.85
129783.85
129783.85
129783.85
129783.85
129783.85
129783.85
129783.85
129783.85
129783.85
129783.85
129783.85
129783.85
129783.85
129783.85
129783.85
129783.85
129783.85
129783.85
129783.85
129783.85
129783.85
129783.85
129783.85
129783.85
129783.85
129783.85
129783.85
129783.85
129783.85
129783.85
129783.85
129783.84
129783.85
129783.85
129783.85
129783.85
129783.84
129783.85
129783.85
129783.85
129783.85
129783.85
129783.85
129783.85
129783.85
129783.84
129783.85
129783.85
129783.84
129783.85
129783.85
129783.85
129783.85
129783.85
129783.84
129783.85
129783.85
129783.85
129783.85
129783.85
129783.85
129783.85
129783.85
129783.84
129783.85
129783.85
129783.85
129783.84
129783.85
129783.85
129783.84
36888.734
35835.502
34758.407
33663.504
32557.048
31445.612
30357.09
35134.733
24357.623
32566.81
22711.838
30378.029
29412
20718.994
20189.642
27081.821
23125.859
22711.278
22382.079
22138.961
21983.941
21919.082
21939.328
18367.853
18370.184
25149.466
25141.074
18360.798
18358.897
18358.686
18358.575
18358.479
18358.43
18358.389
18358.374
18358.369
18358.387
18358.529
18370.471
25151.547
25153.904
25153.871
25153.831
25153.788
25153.739
25153.687
25153.63
25153.568
25153.5
25153.419
25153.117
25133.839
18360.716
18359.171
18359.305
18359.63
18373.792
25150.167
25152.398
25152.221
25152.016
25151.773
25151.462
25151.014
25150.103
25137.626
21962.599
21961.607
21961.605
21961.604
21961.603
21961.601
21961.6
21961.599
21961.598
21961.596
21961.595
21961.594
21961.593
21961.592
21961.59
21961.589
21961.588
21961.587
21961.585
21961.585
21961.583
21961.582
21961.581
21961.58
21961.579
21961.578
21961.577
21961.576
21961.574
21961.574
21961.572
21961.572
21961.571
21961.57
21961.569
21961.568
21961.567
21961.566
21961.566
21961.565
21961.564
21961.564
21961.563
21961.562
21961.562
21961.561
21961.561
21961.56
21961.559
21961.559
21961.558
21961.558
21961.557
21961.557
21961.557
21961.556
12375.715
12022.438
11661.111
11293.759
10922.447
10549.477
10210.219
14277.142
6603.0468
13174.116
6191.2639
12258.203
11794.059
5676.8815
5562.9805
10810.206
7645.3217
7510.7623
7401.879
7321.4749
7270.2187
7248.8231
7251.9137
5091.0485
5095.5922
9986.0399
9973.5826
5088.368
5084.9967
5084.8859
5084.8296
5084.7816
5084.7586
5084.7401
5084.7359
5084.7362
5084.7514
5084.9338
5100.4105
9988.2309
9993.9285
9993.8947
9993.8524
9993.8076
9993.7583
9993.7055
9993.6484
9993.5874
9993.5208
9993.4361
9992.8877
9957.9536
5087.9291
5085.2111
5085.2879
5085.6071
5104.2429
9987.5046
9992.4785
9992.3175
9992.1298
9991.9078
9991.6267
9991.2189
9990.2474
9969.5428
7263.8957
7262.0343
7262.03
7262.027
7262.0243
7262.0215
7262.0187
7262.0159
7262.0131
7262.0101
7262.0072
7262.0043
7262.0013
7261.9984
7261.9953
7261.9923
7261.9892
7261.9863
7261.9832
7261.9803
7261.9773
7261.9742
7261.9714
7261.9684
7261.9655
7261.9627
7261.9598
7261.9571
7261.9543
7261.9517
7261.9488
7261.9463
7261.9438
7261.9412
7261.9388
7261.9364
7261.934
7261.9317
7261.9296
7261.9273
7261.9254
7261.9232
7261.9213
7261.9194
7261.9176
7261.9158
7261.9141
7261.9125
7261.9107
7261.9094
7261.9079
7261.9065
7261.9051
7261.9039
7261.9026
7261.9015
5748.6927
5584.637
5416.8312
5246.2102
5073.7273
4900.6151
4766.1611
8082.0934
2446.1496
7408.2153
2317.5287
6871.899
6538.6705
2142.8907
2124.3064
5959.471
3521.9771
3462.5399
3412.3444
3375.2888
3351.6803
3341.8837
3340.2578
1962.8688
1968.2501
5458.6782
5442.1941
1962.0746
1958.659
1958.6019
1958.5763
1958.5554
1958.5481
1958.5434
1958.5463
1958.5518
1958.5672
1958.7657
1974.7377
5460.6381
5468.0486
5468.0176
5467.9763
5467.9334
5467.8869
5467.8379
5467.7853
5467.7298
5467.6694
5467.5856
5466.766
5420.4301
1961.617
1958.879
1958.9259
1959.2349
1978.5181
5460.4078
5466.7675
5466.6359
5466.4803
5466.2981
5466.0692
5465.734
5464.7439
5438.0952
3349.87
3347.7023
3347.6952
3347.69
3347.6851
3347.6801
3347.6751
3347.67
3347.6647
3347.6594
3347.654
3347.6485
3347.6429
3347.6373
3347.6316
3347.6259
3347.6201
3347.6144
3347.6086
3347.6028
3347.597
3347.5913
3347.5856
3347.5798
3347.5742
3347.5686
3347.563
3347.5575
3347.5521
3347.5467
3347.5414
3347.5362
3347.5311
3347.5261
3347.5211
3347.5163
3347.5116
3347.5069
3347.5025
3347.498
3347.4938
3347.4896
3347.4855
3347.4816
3347.4778
3347.4741
3347.4706
3347.4671
3347.4637
3347.4606
3347.4575
3347.4546
3347.4517
3347.449
3347.4464
3347.4439
3203.8053
3112.4047
3018.9078
2923.8348
2827.7164
2731.4385
2674.4757
5283.3937
1141.9244
4807.7586
1096.6291
4446.7632
4174.0383
1023.7988
1031.1566
3783.5685
1952.1144
1921.0871
1893.2384
1872.6946
1859.621
1854.2592
1851.0519
962.99572
968.63463
3432.5309
3413.359
963.03315
960.04037
960.01523
960.00876
960.00517
960.00878
960.0138
960.02273
960.03305
960.05026
960.25299
975.56904
3434.1396
3441.9171
3441.8898
3441.8506
3441.8105
3441.7677
3441.7231
3441.6759
3441.6263
3441.5727
3441.4891
3440.409
3388.4806
962.68777
960.29744
960.32766
960.62301
979.0939
3434.1898
3440.8111
3440.7076
3440.5832
3440.4395
3440.2611
3439.9955
3438.9864
3409.3626
1859.6091
1857.4629
1857.4526
1857.4445
1857.4368
1857.4289
1857.4209
1857.4126
1857.4042
1857.3956
1857.3868
1857.3779
1857.3688
1857.3596
1857.3503
1857.341
1857.3315
1857.3221
1857.3125
1857.303
1857.2935
1857.2839
1857.2744
1857.265
1857.2556
1857.2462
1857.237
1857.2278
1857.2187
1857.2098
1857.2009
1857.1922
1857.1836
1857.1752
1857.1669
1857.1588
1857.1508
1857.143
1857.1354
1857.1279
1857.1207
1857.1136
1857.1068
1857.1001
1857.0936
1857.0873
1857.0812
1857.0753
1857.0696
1857.0642
1857.0589
1857.0538
1857.0489
1857.0442
1857.0397
1857.0354
1999.0357
1942.0242
1883.7012
1824.3909
1764.4247
1704.5671
1681.9456
3676.0101
653.02141
3321.8625
635.1924
3065.1802
2836.7118
597.49239
611.30433
2559.3031
1213.2649
1195.1994
1177.8734
1165.1098
1157.0042
1153.749
1150.2067
575.44606
581.08009
2300.5828
2280.4454
575.82892
573.34494
573.34017
573.34693
573.35552
573.36757
573.38037
573.39487
573.41
573.42998
573.63349
587.94812
2301.8276
2309.0836
2309.0601
2309.024
2308.9875
2308.949
2308.9092
2308.8673
2308.8237
2308.7765
2308.6922
2307.3965
2255.2017
575.63751
573.65813
573.67866
573.9623
591.1772
2301.9937
2308.1384
2308.0582
2307.9602
2307.849
2307.7131
2307.5051
2306.4793
2276.6139
1157.8102
1155.8636
1155.8495
1155.8378
1155.8265
1155.8149
1155.8031
1155.7909
1155.7785
1155.7657
1155.7527
1155.7394
1155.726
1155.7123
1155.6985
1155.6845
1155.6705
1155.6564
1155.6422
1155.6279
1155.6137
1155.5995
1155.5853
1155.5711
1155.5571
1155.5431
1155.5292
1155.5155
1155.5019
1155.4885
1155.4752
1155.4621
1155.4493
1155.4366
1155.4241
1155.4119
1155.4
1155.3882
1155.3768
1155.3656
1155.3547
1155.344
1155.3337
1155.3236
1155.3138
1155.3043
1155.2951
1155.2862
1155.2776
1155.2693
1155.2613
1155.2536
1155.2462
1155.2391
1155.2323
1155.2257
1345.5527
1307.1912
1267.9444
1228.03
1187.6727
1147.5898
1141.1008
2629.6364
443.23895
2361.562
434.70106
2175.3054
1985.9433
410.15666
424.26762
1785.0466
814.32732
802.86472
791.22623
782.67217
777.25871
775.16104
771.89605
400.57228
406.03473
1591.8904
1572.3243
401.07402
399.06939
399.07892
399.09575
399.11385
399.13315
399.1528
399.17274
399.19277
399.21602
399.41933
412.58341
1592.8241
1599.0966
1599.0772
1599.0453
1599.0132
1598.9796
1598.945
1598.9087
1598.8709
1598.8298
1598.7441
1597.3001
1548.7248
401.04499
399.44912
399.4634
399.73711
415.50864
1593.0066
1598.295
1598.2326
1598.1553
1598.0697
1597.967
1597.803
1596.7694
1568.6782
778.46772
776.79946
776.78103
776.765
776.7493
776.7332
776.71672
776.69977
776.68241
776.66464
776.64651
776.62806
776.6093
776.5903
776.57107
776.55166
776.5321
776.51244
776.49269
776.4729
776.45309
776.4333
776.41357
776.3939
776.37434
776.35492
776.33564
776.31655
776.29766
776.27899
776.26056
776.24239
776.22449
776.20689
776.18959
776.17262
776.15598
776.1397
776.12377
776.10822
776.09304
776.07825
776.06386
776.04986
776.03628
776.02309
776.01033
775.99796
775.98601
775.97448
775.96335
775.95265
775.94234
775.93246
775.92296
775.91386
955.95088
928.70683
900.8312
872.47892
843.81183
815.51924
816.44443
1906.1321
341.06475
1702.8542
335.34019
1566.8013
1412.8868
315.97328
328.33889
1266.4748
577.39609
569.54944
561.2941
555.24795
551.44248
550.05346
547.37543
309.51688
314.65754
1122.4767
1104.588
310.03103
308.45174
308.47225
308.49735
308.52347
308.54934
308.57532
308.60062
308.62553
308.65204
308.85298
320.71991
1123.1808
1128.3174
1128.3026
1128.2759
1128.2491
1128.221
1128.1919
1128.1613
1128.1293
1128.0938
1128.0068
1126.4906
1083.8377
310.15906
308.90045
308.90972
309.17171
323.32616
1123.3315
1127.6433
1127.5936
1127.5319
1127.4651
1127.3868
1127.2538
1126.227
1101.129
552.86962
551.4962
551.47278
551.45158
551.43068
551.40925
551.38729
551.36474
551.34165
551.31804
551.29398
551.26949
551.24464
551.21946
551.19401
551.16833
551.14247
551.11649
551.09041
551.06429
551.03816
551.01207
550.98605
550.96014
550.93439
550.90881
550.88345
550.85833
550.83349
550.80894
550.78472
550.76084
550.73734
550.71423
550.69153
550.66926
550.64744
550.62608
550.60521
550.58482
550.56494
550.54557
550.52672
550.50841
550.49062
550.47338
550.45668
550.44052
550.4249
550.40984
550.39532
550.38134
550.3679
550.35501
550.34264
550.33078
707.06017
686.91744
666.30525
645.33821
624.13889
603.36624
607.26541
1392.0108
283.98094
1238.4583
278.64997
1138.8945
1016.3221
261.43049
271.40524
909.38774
426.53464
420.78308
414.68669
410.24451
407.47143
406.55576
404.59929
254.74696
259.42515
802.73724
787.16479
255.22461
254.01513
254.04459
254.07673
254.10983
254.14168
254.1735
254.20391
254.23346
254.26264
254.45638
264.87605
803.29611
807.33464
807.32478
807.30412
807.28315
807.26075
807.23734
807.21232
807.18584
807.15542
807.06745
805.55295
769.79134
255.49539
254.52709
254.53115
254.77501
267.14143
803.39824
806.77118
806.7299
806.67896
806.62527
806.56369
806.45078
805.44635
783.88363
409.03389
407.93588
407.90673
407.87958
407.85268
407.82511
407.79689
407.76795
407.73837
407.70816
407.6774
407.64615
407.61446
407.5824
407.55002
407.51739
407.48456
407.4516
407.41854
407.38546
407.35239
407.31939
407.28651
407.25379
407.22129
407.18902
407.15705
407.12541
407.09412
407.06323
407.03276
407.00275
406.97322
406.94419
406.9157
406.88776
406.8604
406.83363
406.80747
406.78195
406.75706
406.73283
406.70927
406.68638
406.66417
406.64264
406.6218
406.60166
406.5822
406.56344
406.54537
406.52799
406.5113
406.49529
406.47995
406.46525
539.49291
524.13081
508.40826
492.4127
476.24082
460.51161
465.10182
1022.4316
246.95384
907.07369
241.14169
834.13194
738.34378
224.95433
232.43428
660.09099
325.24567
320.77559
316.13314
312.77451
310.7042
310.12766
308.9184
217.01084
221.11307
581.71884
568.70429
217.43252
216.53886
216.57574
216.61381
216.6529
216.69004
216.72704
216.76204
216.79561
216.82634
217.00556
225.86998
582.2045
585.27995
585.27513
585.26066
585.24554
585.22879
585.21074
585.19088
585.1693
585.1432
585.05483
583.60502
554.74583
217.82324
217.09985
217.09748
217.31312
227.77577
582.25554
584.80732
584.7709
584.72677
584.68125
584.6299
584.52786
583.55927
565.58339
312.36078
311.50088
311.46525
311.43138
311.39772
311.3633
311.3281
311.29209
311.25533
311.21787
311.17979
311.14116
311.10204
311.06252
311.02267
310.98255
310.94223
310.90179
310.86129
310.82079
310.78035
310.74003
310.69989
310.65998
310.62036
310.58107
310.54217
310.50369
310.46567
310.42816
310.39119
310.3548
310.31901
310.28386
310.24937
310.21558
310.18251
310.15017
310.1186
310.0878
310.0578
310.02861
310.00024
309.9727
309.94599
309.92013
309.89511
309.87095
309.84763
309.82516
309.80354
309.78276
309.76283
309.74373
309.72546
309.70795
421.9419
409.93343
397.64079
385.13251
372.48729
360.274
364.43668
755.58936
219.28553
669.37556
212.7623
615.80649
542.18124
197.27897
202.41222
484.70272
254.34504
250.70734
247.08685
244.49314
242.92457
242.60664
242.1028
188.01479
191.47199
427.5493
417.04601
188.37698
187.74629
187.78915
187.832
187.87592
187.91742
187.95864
187.99737
188.03395
188.06458
188.22074
195.50167
428.01424
430.29696
430.29682
430.28811
430.2783
430.26653
430.25309
430.23751
430.21985
430.19695
430.10876
428.77122
406.23197
188.85618
188.33354
188.32283
188.49872
197.03968
428.0144
429.89109
429.8565
429.81577
429.77424
429.72763
429.62883
428.7053
414.05943
244.64686
243.9816
243.93875
243.8975
243.85643
243.81453
243.77177
243.72812
243.68367
243.63845
243.59258
243.54613
243.49917
243.45181
243.40412
243.35618
243.30807
243.25988
243.21166
243.16352
243.11549
243.06766
243.0201
242.97285
242.92599
242.87956
242.83363
242.78824
242.74343
242.69926
242.65576
242.61296
242.57092
242.52965
242.4892
242.44959
242.41085
242.37301
242.33608
242.3001
242.26507
242.23101
242.19793
242.16585
242.13476
242.10469
242.07562
242.04757
242.02053
241.9945
241.96948
241.94547
241.92245
241.90044
241.8794
241.85927
336.71027
327.1335
317.3277
307.34777
297.25945
287.57399
290.83839
562.62558
196.25005
498.44339
189.07634
458.90786
403.11182
174.2934
177.36393
360.61139
203.02059
199.96157
197.0852
195.05174
193.85643
193.74644
193.86726
164.05918
166.85364
319.22304
311.00432
164.36685
163.94793
163.9952
164.04147
164.08885
164.13345
164.17761
164.2188
164.25697
164.28541
164.41039
170.17088
319.69817
321.35729
321.36093
321.35695
321.35134
321.34336
321.33326
321.32066
321.30552
321.28437
321.19677
320.00224
302.90024
164.89481
164.53045
164.50911
164.63474
171.34529
319.64373
320.98939
320.95406
320.91371
320.8726
320.82604
320.72414
319.84993
308.11698
195.61269
195.09949
195.04881
194.99964
194.95066
194.90083
194.8501
194.79845
194.74596
194.69271
194.63879
194.58429
194.52932
194.47397
194.41832
194.36248
194.30653
194.25055
194.19464
194.13887
194.08331
194.02805
193.97315
193.91869
193.86472
193.81131
193.75853
193.70641
193.65502
193.6044
193.5546
193.50565
193.4576
193.41048
193.36433
193.31918
193.27506
193.23199
193.19001
193.14913
193.10936
193.07074
193.03327
192.99695
192.9618
192.92782
192.89502
192.8634
192.83295
192.80367
192.77557
192.74863
192.72284
192.69821
192.67472
192.65228
273.21824
265.45317
257.49997
249.40348
241.21973
233.39881
235.65191
422.94577
175.7776
375.25668
168.14517
345.84427
304.04961
154.17538
155.53778
272.30602
164.82865
162.20166
159.88355
158.27377
157.3666
157.43108
158.07679
143.4669
145.62825
242.5312
236.27904
143.72861
143.4734
143.52327
143.57135
143.62049
143.6666
143.71205
143.75406
143.79197
143.81584
143.90339
148.28546
243.02675
244.21168
244.21768
244.2168
244.21373
244.20787
244.19942
244.18805
244.17369
244.15254
244.0657
243.02914
230.38899
144.25835
144.01281
143.97848
144.04654
149.11035
242.90716
243.84866
243.81035
243.76775
243.72395
243.67343
243.56312
242.73816
233.44637
159.11385
158.71485
158.65589
158.59848
158.54133
158.48334
158.42447
158.36469
158.3041
158.24278
158.18083
158.11836
158.05547
157.99227
157.92885
157.86532
157.80176
157.73828
157.67497
157.61191
157.54918
157.48687
157.42504
157.36378
157.30315
157.24322
157.18404
157.12569
157.06821
157.01164
156.95604
156.90145
156.84791
156.79547
156.74415
156.69399
156.64501
156.59726
156.55075
156.5055
156.46154
156.41887
156.37751
156.33748
156.29877
156.2614
156.22535
156.19065
156.15727
156.12522
156.09449
156.06508
156.03698
156.01018
155.98467
155.96035
224.84349
218.45903
211.91746
205.25606
198.52337
192.10854
193.42486
321.65954
157.02408
286.20584
149.17205
264.07708
233.05471
136.14526
136.17645
209.02115
135.74927
133.46665
131.57854
130.29844
129.62138
129.83692
130.90247
125.46362
127.05715
187.74909
183.11796
125.68793
125.55319
125.60356
125.65152
125.7004
125.74608
125.79079
125.8316
125.86703
125.88379
125.93046
129.12882
188.2569
189.09037
189.09682
189.09694
189.09432
189.0885
189.07964
189.06748
189.05186
189.02878
188.94253
188.0657
178.94934
126.16678
126.00507
125.95564
125.96328
129.62378
188.05463
188.69615
188.65292
188.60577
188.55664
188.49872
188.37567
187.59674
180.28674
131.30281
130.98656
130.91916
130.85347
130.78815
130.72208
130.65521
130.58749
130.51905
130.44996
130.38033
130.31027
130.23991
130.16933
130.09865
130.02798
129.95741
129.88705
129.81698
129.7473
129.67809
129.60944
129.54141
129.4741
129.40757
129.34188
129.2771
129.2133
129.15051
129.0888
129.02821
128.96878
128.91056
128.85358
128.79788
128.7435
128.69045
128.63879
128.58851
128.53965
128.49223
128.44625
128.40174
128.35869
128.31712
128.27703
128.23841
128.20127
128.1656
128.1314
128.09866
128.06737
128.03752
128.00911
127.98212
127.95647
187.27897
181.96683
176.52156
170.97469
165.36887
160.03582
160.57574
247.97294
139.70604
221.526
131.87162
204.63759
181.76017
119.88852
118.95052
163.25773
113.17663
111.18321
109.63427
108.61753
108.13
108.47907
109.86298
109.6662
110.77824
148.19058
144.84808
109.85912
109.80768
109.8561
109.90165
109.94793
109.99087
110.03249
110.06972
110.10017
110.10726
110.11262
112.34484
148.68709
149.26484
149.26944
149.26811
149.26357
149.25545
149.24389
149.2287
149.20967
149.18265
149.09657
148.3712
141.94809
110.23078
110.12351
110.05744
110.00649
112.53081
148.37941
148.80242
148.75266
148.69907
148.6424
148.57428
148.43516
147.69754
141.9591
109.67633
109.41812
109.3425
109.26885
109.19575
109.12204
109.04766
108.97259
108.89691
108.82072
108.74413
108.66727
108.59023
108.51314
108.43609
108.35921
108.28257
108.2063
108.13048
108.05521
107.98056
107.90662
107.83347
107.76118
107.68983
107.61948
107.55019
107.48202
107.41503
107.34925
107.28475
107.22155
107.15971
107.09925
107.04021
106.98263
106.92653
106.87194
106.81888
106.76737
106.71742
106.66906
106.62228
106.5771
106.53352
106.49154
106.45115
106.41236
106.37517
106.33955
106.30551
106.27303
106.2421
106.21272
106.18487
106.15848
157.63092
153.16531
148.58541
143.91831
139.20206
134.7169
134.66656
194.08069
123.77474
174.22417
116.16425
161.11776
144.30874
105.27887
103.69298
129.79233
95.365492
93.623944
92.348455
91.547208
91.220185
91.688472
93.298201
95.846343
96.570279
119.25216
116.90161
96.00962
96.010823
96.05447
96.094988
96.135964
96.173555
96.209452
96.240476
96.263222
96.258252
96.224566
97.705099
119.70187
120.09565
120.09589
120.0905
120.08152
120.06868
120.0521
120.03167
120.00709
119.97422
119.8877
119.29885
114.87464
96.216813
96.140672
96.057245
95.95366
97.601891
119.264
119.52999
119.47251
119.41108
119.34524
119.26481
119.10753
118.40643
113.89412
92.553979
92.335485
92.252306
92.171449
92.091363
92.010893
91.929942
91.848482
91.766607
91.684408
91.602
91.519493
91.436999
91.35463
91.272488
91.190683
91.109309
91.02847
90.948252
90.868747
90.790033
90.712193
90.6353
90.559427
90.48464
90.411005
90.338577
90.267414
90.197563
90.129067
90.061969
89.996311
89.93213
89.869459
89.808329
89.748771
89.690807
89.634465
89.579758
89.526712
89.475332
89.425637
89.377623
89.331304
89.286675
89.243739
89.20249
89.162923
89.125032
89.088805
89.054235
89.021311
88.990019
88.960347
88.932277
88.905763
133.90022
130.11228
126.22507
122.26228
118.25836
114.44949
113.98702
154.36449
109.25423
139.31142
102.02845
128.95298
116.61037
92.2469
90.279383
104.9915
81.11341
79.596145
78.545691
77.924698
77.736848
78.31157
80.066146
83.825428
84.250681
97.762775
96.152802
83.955689
83.985131
84.020847
84.053376
84.086113
84.115502
84.142849
84.164885
84.177186
84.158063
84.089548
85.011421
98.121981
98.38388
98.377247
98.365257
98.349431
98.32959
98.305857
98.278145
98.246145
98.205837
98.118218
97.647289
94.666536
83.9435
83.881199
83.780687
83.633453
84.637429
97.531214
97.685418
97.619591
97.549535
97.473578
97.379961
97.203675
96.535445
92.970711
78.77919
78.587594
78.498036
78.411203
78.325409
78.239498
78.153347
78.066924
77.980316
77.893607
77.806907
77.720322
77.633959
77.547924
77.462314
77.377233
77.29277
77.209023
77.126071
77.044001
76.962884
76.882798
76.803809
76.725986
76.649388
76.574073
76.500095
76.427502
76.356338
76.286639
76.218444
76.151791
76.086711
76.023234
75.961385
75.901192
75.842673
75.785851
75.730738
75.677356
75.625705
75.5758
75.527639
75.481229
75.436564
75.393644
75.352461
75.313009
75.275278
75.239255
75.204933
75.172297
75.141335
75.112033
75.084369
75.058312
114.67198
111.4331
108.10708
104.71506
101.28877
98.028256
97.306736
124.80063
96.164839
113.24342
89.434907
104.90294
95.815534
80.722662
78.58039
86.331151
69.570976
68.255832
67.394135
66.92686
66.861959
67.530767
69.361593
73.43307
73.637884
81.536233
80.462211
73.521732
73.560565
73.584942
73.606308
73.627733
73.645979
73.661929
73.672227
73.67149
73.636586
73.53863
74.063387
81.757343
81.924233
81.908486
81.88769
81.86298
81.834257
81.80164
81.765089
81.724281
81.675467
81.586273
81.213496
79.247945
73.241788
73.181556
73.065349
72.885175
73.437363
80.997551
81.072781
80.998674
80.919954
80.834115
80.727297
80.533053
79.895929
77.061818
67.54047
67.367527
67.273283
67.182174
67.092398
67.002801
66.913239
66.823671
66.73417
66.644813
66.555702
66.466932
66.378601
66.290807
66.203637
66.117186
66.031536
65.946772
65.862968
65.780199
65.69853
65.618028
65.538752
65.460763
65.384111
65.308847
65.235016
65.162661
65.091817
65.022514
64.954786
64.888663
64.824172
64.761336
64.700176
64.640714
64.582964
64.526946
64.472665
64.42014
64.369369
64.320364
64.273116
64.227634
64.183906
64.141932
64.101701
64.063203
64.02643
63.991365
63.958001
63.926321
63.896314
63.867962
63.841247
63.816143
98.923335
96.133974
93.267427
90.342897
87.390243
84.581124
83.722031
102.52099
84.492928
93.511437
78.323305
86.674317
79.941796
70.616049
68.449562
72.058478
60.124677
58.992664
58.292071
57.957986
58.003095
58.753379
60.60386
64.495775
64.543596
69.062334
68.363026
64.52966
64.563699
64.573252
64.580258
64.587369
64.591656
64.59357
64.589651
64.573693
64.522021
64.400456
64.655209
69.09864
69.196259
69.169711
69.13851
69.103513
69.06468
69.022135
68.975876
68.92559
68.867937
68.777072
68.483433
67.213544
63.944995
63.879838
63.750438
63.548546
63.799313
68.164607
68.184582
68.103039
68.016487
67.921951
67.803088
67.593677
66.988525
64.719967
58.260116
58.101121
58.004325
57.911036
57.819367
57.728181
57.637312
57.546709
57.456428
57.366537
57.277121
57.188266
57.100056
57.012577
56.925905
56.840122
56.755297
56.671508
56.588813
56.507278
56.426957
56.347907
56.270177
56.193816
56.118868
56.045374
55.973369
55.902888
55.833958
55.766604
55.700849
55.636719
55.574234
55.513411
55.454266
55.396815
55.341067
55.287037
55.234729
55.184154
55.135308
55.088199
55.042817
54.999166
54.957234
54.917017
54.878504
54.841682
54.806542
54.773068
54.741249
54.71107
54.682517
54.655575
54.630225
54.606445
85.900842
83.482816
80.995898
78.457881
75.897463
73.464942
72.557983
85.488895
74.185096
78.344429
68.600798
72.647262
67.610293
61.815557
59.726638
60.9549
52.322447
51.356605
50.795613
50.578262
50.722432
51.540923
53.365433
56.838413
56.777174
59.29404
58.84597
56.801013
56.819895
56.811336
56.801037
56.791185
56.779113
56.764839
56.744788
56.712118
56.643511
56.504124
56.583604
59.10487
59.151215
59.113001
59.070657
59.024837
58.975546
58.922911
58.86696
58.807419
58.741461
58.649367
58.417907
57.612513
55.891058
55.817873
55.678767
55.465906
55.526559
58.005436
57.987463
57.900106
57.807714
57.706243
57.577685
57.357482
56.787139
54.960669
50.521812
50.374599
50.27766
50.184519
50.093249
50.002745
49.912822
49.823415
49.734566
49.646326
49.558766
49.471956
49.385967
49.30087
49.216726
49.133605
49.051563
48.970662
48.89095
48.812481
48.735296
48.659441
48.584955
48.511877
48.440239
48.370074
48.301408
48.234268
48.168671
48.104635
48.042178
47.981318
47.922068
47.86444
47.808443
47.754091
47.701387
47.650341
47.600952
47.553229
47.507164
47.462764
47.420014
47.378918
47.33946
47.301637
47.265433
47.230838
47.197841
47.166424
47.136577
47.108285
47.081535
47.05631
47.032594
47.010368
75.040127
72.931233
70.760458
68.544638
66.311947
64.197215
63.303672
72.261751
65.15434
66.493669
60.149892
61.678335
57.860193
54.194781
52.246025
52.17048
45.82513
45.009963
44.571433
44.457349
44.690345
45.562958
47.325539
50.289882
50.153296
51.501432
51.212549
50.163192
50.159716
50.130296
50.100347
50.071569
50.041471
50.009654
49.972416
49.922503
49.837761
49.686033
49.657502
51.057193
51.065173
51.015435
50.962231
50.906064
50.846965
50.785059
50.720399
50.652769
50.57993
50.487638
50.304162
49.801021
48.92782
48.846463
48.701851
48.487581
48.436536
49.816264
49.773208
49.682285
49.586692
49.480823
49.345874
49.120394
48.588858
47.112499
44.02143
43.885445
43.790811
43.700153
43.611555
43.523958
43.437162
43.351092
43.26577
43.181232
43.097533
43.014728
42.932871
42.852018
42.772217
42.693523
42.615977
42.53963
42.464517
42.390678
42.318144
42.24695
42.177123
42.108693
42.041683
41.976116
41.91201
41.849384
41.788247
41.728611
41.670487
41.613886
41.558818
41.505288
41.4533
41.402863
41.353978
41.306649
41.260873
41.216656
41.173988
41.132871
41.093292
41.055251
41.018731
40.983728
40.950227
40.918217
40.887685
40.858615
40.830997
40.804815
40.780059
40.75671
40.734755
40.714179
65.912035
64.062187
62.156495
60.211209
58.25452
56.410402
55.568112
61.818653
57.290678
57.078129
52.839141
52.959418
50.019089
47.620916
45.845444
45.108981
40.374154
39.695328
39.365156
39.343261
39.654456
40.566346
42.239383
44.688945
44.498969
45.171967
44.975571
44.455698
44.425373
44.373262
44.322273
44.273607
44.224846
44.175193
44.120807
44.054266
43.955224
43.79624
43.705444
44.458338
44.43769
44.377627
44.314885
44.24985
44.182559
44.113131
44.041633
43.967926
43.890385
43.79943
43.652693
43.341348
42.917099
42.829438
42.683833
42.476065
42.366018
43.113154
43.054745
42.963182
42.867066
42.759774
42.622271
42.3975
41.908854
40.713377
38.532492
38.407988
38.317889
38.231813
38.147906
38.065169
37.983392
37.90249
37.822468
37.743349
37.66517
37.587971
37.511791
37.436672
37.362649
37.28976
37.218038
37.147517
37.078223
37.010185
36.943422
36.877961
36.813818
36.751015
36.689565
36.629485
36.570785
36.513476
36.457563
36.403051
36.349946
36.298255
36.24798
36.199124
36.151689
36.105677
36.061087
36.017921
35.976174
35.935847
35.896931
35.859425
35.823316
35.788601
35.755267
35.723305
35.692702
35.663446
35.635527
35.608927
35.583638
35.559645
35.536937
35.515498
35.495317
35.476379
58.185767
56.554202
54.872095
53.155425
51.432823
49.820696
49.049434
53.436289
50.472155
49.474405
46.533135
45.917504
43.613096
41.963007
40.372647
39.348545
35.769564
35.21372
34.979851
35.039959
35.418652
36.354449
37.917471
39.888645
39.658441
39.942682
39.79207
39.534694
39.475459
39.400071
39.327892
39.259612
39.19277
39.126191
39.055899
38.974532
38.863988
38.70242
38.579339
38.963113
38.921649
38.853381
38.783306
38.711708
38.638611
38.56412
38.488311
38.411126
38.331537
38.243743
38.125239
37.932771
37.736171
37.645184
37.502946
37.307703
37.172403
37.559892
37.493506
37.404241
37.310272
37.204559
37.068372
36.850014
36.4074
35.439492
33.88173
33.769164
33.68539
33.605557
33.527916
33.451539
33.376213
33.301845
33.228426
33.155966
33.084487
33.014016
32.944578
32.876202
32.808911
32.742733
32.677687
32.613799
32.551083
32.48956
32.42924
32.370141
32.312272
32.255648
32.200275
32.146163
32.093317
32.041742
31.991439
31.942409
31.894652
31.848173
31.80297
31.759045
31.716393
31.675017
31.634912
31.596079
31.558511
31.522208
31.487159
31.453364
31.420808
31.389489
31.359393
31.330512
31.302833
31.276346
31.251039
31.226898
31.203915
31.182075
31.161369
31.141783
31.123306
31.105927
51.60317
50.156408
48.663857
47.141486
45.618662
44.206302
43.512844
46.600377
44.574193
43.238989
41.100338
40.143984
38.304904
37.096646
35.689688
34.587291
31.854849
31.409466
31.26116
31.3935
31.828662
32.772856
34.211534
35.758965
35.495835
35.554253
35.418235
35.275456
35.187465
35.089649
34.997507
34.91119
34.828092
34.746675
34.662843
34.569491
34.450983
34.291053
34.154731
34.330101
34.274389
34.200679
34.126053
34.050701
33.974623
33.897901
33.820609
33.742777
33.66391
33.581106
33.484605
33.364335
33.27701
33.186003
33.050905
32.872273
32.7322
32.91806
32.849384
32.764789
32.675314
32.573827
32.442388
32.235233
31.840158
31.05757
29.932235
29.831872
29.755641
29.683161
29.612817
29.543757
29.475773
29.408767
29.34272
29.277629
29.213507
29.150368
29.088226
29.027101
28.967005
28.907956
28.849966
28.793051
28.737218
28.68248
28.628841
28.576312
28.524898
28.474606
28.425439
28.377402
28.330495
28.284721
28.240075
28.196557
28.154165
28.112901
28.072759
28.03374
27.995839
27.959055
27.923384
27.888824
27.855367
27.823014
27.791754
27.761585
27.732494
27.704478
27.677523
27.651624
27.626768
27.602945
27.580145
27.558355
27.537567
27.517769
27.498952
27.481104
27.464216
27.448278
45.960549
44.670861
43.339752
41.983373
40.631988
39.392062
38.774552
40.942988
39.47656
38.053796
36.41844
35.345117
33.851388
32.908309
31.674986
30.606198
28.506278