/*--------------------------------*- C++ -*----------------------------------*\
| =========                 |                                                 |
| \\      /  F ield         | OpenFOAM: The Open Source CFD Toolbox           |
|  \\    /   O peration     | Version:  2.4.0                                 |
|   \\  /    A nd           | Web:      www.OpenFOAM.org                      |
|    \\/     M anipulation  |                                                 |
\*---------------------------------------------------------------------------*/
FoamFile
{
    version     2.0;
    format      ascii;
    class       volScalarField;
    location    "380";
    object      p;
}
// * * * * * * * * * * * * * * * * * * * * * * * * * * * * * * * * * * * * * //

dimensions      [0 2 -2 0 0 0 0];

internalField   nonuniform List<scalar> 
19698
(
-8.3493099e-10
0.00020172935
0.00041669671
0.00064729337
0.00088310001
0.0011177321
0.0013371992
0.0015383399
0.0017042677
0.0018467663
0.0019521321
0.0020316034
0.0020617051
0.0020620948
0.0019972136
0.0018937967
0.0016915937
0.0014485655
0.0010691237
0.00066161782
5.2553766e-05
-0.00054759947
-0.0014564723
-0.0020178596
-0.002519683
-0.0028440835
-0.0031230687
-0.0032537785
-0.003325086
-0.0032821843
-0.0031812688
-0.0029881879
-0.0027393717
-0.0024144086
-0.0020368089
-0.0015942315
-0.0011019431
-0.00055258682
4.3795683e-05
0.00068671123
0.0013707107
0.0021026076
0.0028762297
0.0036922836
0.0045472152
0.0054410849
0.0063712826
0.0073374796
0.0083376251
0.0093707109
0.010434617
0.011526586
0.012654878
0.013818694
0.015007349
0.016223123
0.017465068
0.01872538
0.020004711
0.021309436
0.022635525
0.023982028
0.025347711
0.026732805
0.028135999
0.029555523
0.03098423
0.032422305
0.033874619
0.035338022
0.036811943
0.038294788
0.039785872
0.041283838
0.042787891
0.044296882
0.045810057
0.047326295
0.04884489
0.050364727
0.051885224
0.05340537
0.054924572
0.056441766
0.057956381
0.059467598
0.060975006
0.062477897
0.063975763
0.065467903
0.066953792
0.068432901
0.069904622
0.071368426
0.072823876
0.074270824
0.075708741
0.077137181
0.078555497
0.07996344
0.081360408
0.082746025
0.0841198
0.08548147
0.086830828
0.088167544
0.089491663
0.090802901
0.092101463
0.093387046
0.094659759
0.095919312
0.097165754
0.098398895
0.099618777
0.10082529
0.1020185
0.1031983
0.10436483
0.10551796
0.10665791
0.10778437
-1.1837625e-06
0.00020032322
0.00041519849
0.00064571302
0.00088148497
0.0011161656
0.0013357307
0.0015370617
0.0017032051
0.0018459126
0.0019514547
0.0020311363
0.0020613941
0.0020619842
0.0019972271
0.0018939955
0.0016918487
0.0014489422
0.0010694475
0.00066198281
5.2784318e-05
-0.00054731019
-0.0014557835
-0.0020169816
-0.0025189718
-0.0028433723
-0.0031224011
-0.003253106
-0.0033244302
-0.0032815246
-0.0031806192
-0.0029875333
-0.0027387204
-0.0024137523
-0.0020361524
-0.0015935704
-0.0011012805
-0.00055192014
4.4472976e-05
0.00068738711
0.0013713761
0.0021032723
0.002876893
0.0036929437
0.0045478723
0.0054417369
0.0063719299
0.0073381199
0.008338258
0.0093713337
0.010435226
0.011527168
0.012655458
0.013819284
0.015007929
0.016223695
0.017465645
0.018725937
0.020005235
0.021309945
0.022636021
0.023982512
0.025348186
0.026733272
0.028136456
0.02955595
0.030984619
0.032422666
0.033874957
0.035338336
0.036812236
0.038295058
0.039786122
0.041284065
0.042788097
0.044297067
0.045810221
0.047326437
0.04884501
0.050364826
0.051885301
0.053405428
0.054924608
0.056441781
0.057956375
0.059467572
0.06097496
0.062477832
0.063975678
0.065467799
0.06695367
0.06843276
0.069904463
0.071368248
0.072823682
0.074270612
0.075708513
0.077136935
0.078555236
0.079963162
0.081360116
0.082745717
0.084119479
0.085481134
0.086830479
0.088167183
0.089491289
0.090802515
0.092101065
0.093386638
0.094659339
0.095918883
0.097165314
0.098398446
0.099618318
0.10082482
0.10201802
0.10319781
0.10436434
0.10551747
0.1066574
0.10778386
-2.4459733e-06
0.00019878987
0.00041358524
0.00064400815
0.00087973873
0.0011144677
0.0013341355
0.0015356658
0.0017020423
0.001844977
0.00195071
0.0020306231
0.0020610488
0.0020618571
0.0019972351
0.0018942054
0.0016921166
0.0014493455
0.0010697915
0.00066238264
5.3039071e-05
-0.00054695837
-0.0014550011
-0.002015978
-0.0025181576
-0.0028425598
-0.0031216473
-0.003252348
-0.0033236943
-0.0032807855
-0.003179895
-0.0029868047
-0.002737998
-0.0024130252
-0.002035427
-0.001592841
-0.0011005503
-0.00055118554
4.5222734e-05
0.00068813334
0.0013721056
0.002104
0.0028776186
0.0036936648
0.0045485893
0.005442447
0.0063726344
0.0073388157
0.008338945
0.0093720082
0.010435883
0.011527787
0.012656076
0.013819921
0.015008556
0.016224314
0.017466277
0.018726544
0.020005799
0.021310493
0.022636553
0.023983031
0.025348694
0.026733773
0.028136944
0.029556403
0.030985028
0.032423051
0.033875315
0.035338669
0.036812545
0.038295344
0.039786384
0.041284304
0.042788313
0.044297259
0.045810389
0.047326582
0.048845131
0.050364924
0.051885376
0.05340548
0.054924636
0.056441788
0.057956359
0.059467535
0.0609749
0.062477752
0.063975577
0.065467676
0.066953527
0.068432596
0.06990428
0.071368044
0.072823461
0.074270371
0.075708255
0.077136657
0.078554943
0.07996285
0.081359789
0.082745372
0.084119119
0.08548076
0.08683009
0.088166781
0.089490873
0.090802087
0.092100624
0.093386185
0.094658874
0.095918407
0.097164827
0.098397949
0.099617811
0.1008243
0.10201749
0.10319728
0.1043638
0.10551692
0.10665684
0.1077833
-3.6958214e-06
0.00019723249
0.0004119738
0.00064230379
0.00087799092
0.001112765
0.0013325343
0.0015342559
0.0017008655
0.0018440287
0.001949955
0.0020301048
0.0020607006
0.0020617289
0.0019972465
0.0018944201
0.0016923913
0.0014497562
0.0010701463
0.00066279539
5.3310924e-05
-0.00054658737
-0.0014542503
-0.002015003
-0.0025173579
-0.0028417626
-0.0031209123
-0.0032516077
-0.0033229735
-0.0032800609
-0.0031791848
-0.0029860893
-0.002737288
-0.0024123101
-0.002034713
-0.0015921224
-0.00109983
-0.00055045943
4.5969817e-05
0.00068887562
0.0013728267
0.0021047191
0.0028783362
0.0036943773
0.0045492982
0.0054431484
0.0063733305
0.0073395027
0.0083396232
0.0093726732
0.010436528
0.011528387
0.012656678
0.01382055
0.015009176
0.016224929
0.017466916
0.018727154
0.020006356
0.021311033
0.022637079
0.023983543
0.025349196
0.026734267
0.028137424
0.029556844
0.030985427
0.032423429
0.033875668
0.035338997
0.036812849
0.038295625
0.039786643
0.041284539
0.042788525
0.044297448
0.045810554
0.047326724
0.048845248
0.05036502
0.051885448
0.05340553
0.054924663
0.056441793
0.057956342
0.059467497
0.06097484
0.06247767
0.063975474
0.065467553
0.066953385
0.068432432
0.069904098
0.071367841
0.072823242
0.07427013
0.075707998
0.077136379
0.078554651
0.079962538
0.081359462
0.082745028
0.084118761
0.085480387
0.086829703
0.088166381
0.089490458
0.090801661
0.092100184
0.093385735
0.094658411
0.095917933
0.097164343
0.098397455
0.099617307
0.10082379
0.10201697
0.10319675
0.10436326
0.10551637
0.10665629
0.10778274
-4.9859381e-06
0.0001955991
0.00041030011
0.00064053418
0.00087617505
0.0011109937
0.0013308672
0.0015327813
0.001699632
0.0018430327
0.001949161
0.0020295592
0.0020603339
0.0020615914
0.0019972582
0.0018946436
0.0016926812
0.0014501869
0.0010705248
0.0006632329
5.3608575e-05
-0.00054619665
-0.0014535231
-0.0020140443
-0.0025165608
-0.0028409691
-0.0031201815
-0.0032508704
-0.0033222526
-0.0032793349
-0.0031784717
-0.0029853697
-0.0027365725
-0.0024115884
-0.0020339911
-0.0015913951
-0.0010990997
-0.00054972183
4.6732169e-05
0.00068963244
0.0013735603
0.0021054509
0.0028790673
0.003695103
0.0045500207
0.005443863
0.0063740403
0.007340203
0.0083403147
0.0093733507
0.010437185
0.011528993
0.012657289
0.013821192
0.015009811
0.01622556
0.017467575
0.018727782
0.020006926
0.021311585
0.022637616
0.023984067
0.025349709
0.026734771
0.028137914
0.029557293
0.030985834
0.032423815
0.033876029
0.035339333
0.036813161
0.038295913
0.039786908
0.04128478
0.042788742
0.044297641
0.045810723
0.04732687
0.048845369
0.050365118
0.051885522
0.053405583
0.05492469
0.0564418
0.057956325
0.059467459
0.060974779
0.062477588
0.063975371
0.065467428
0.06695324
0.068432266
0.069903913
0.071367634
0.072823018
0.074269885
0.075707736
0.077136096
0.078554353
0.079962219
0.081359129
0.082744675
0.084118395
0.085480005
0.086829306
0.088165971
0.089490033
0.090801225
0.092099734
0.093385275
0.094657937
0.095917448
0.097163848
0.098396949
0.099616791
0.10082327
0.10201644
0.10319621
0.10436271
0.10551582
0.10665573
0.10778217
-6.3218295e-06
0.00019388922
0.0004085558
0.00063869166
0.00087428332
0.0011091458
0.0013291261
0.0015312349
0.0016983349
0.0018419819
0.0019483207
0.0020289777
0.0020599406
0.0020614364
0.0019972619
0.0018948683
0.0016929798
0.0014506318
0.0010709225
0.00066369128
5.3928599e-05
-0.0005457895
-0.0014528204
-0.0020130996
-0.0025157644
-0.0028401775
-0.0031194519
-0.0032501332
-0.0033215294
-0.0032786054
-0.0031777537
-0.0029846441
-0.0027358493
-0.0024108581
-0.0020332593
-0.0015906571
-0.0010983575
-0.00054897121
4.7508747e-05
0.000690403
0.0013743078
0.0021061969
0.0028798134
0.0036958435
0.0045507583
0.0054445923
0.0063747653
0.0073409181
0.0083410209
0.0093740427
0.010437855
0.011529613
0.012657914
0.013821851
0.015010461
0.016226208
0.01746825
0.018728423
0.020007509
0.02131215
0.022638166
0.023984602
0.025350233
0.026735287
0.028138416
0.029557756
0.030986253
0.032424212
0.033876398
0.035339677
0.036813481
0.038296209
0.03978718
0.041285028
0.042788966
0.044297841
0.045810898
0.047327021
0.048845493
0.05036522
0.051885598
0.053405638
0.054924719
0.056441807
0.057956308
0.05946742
0.060974717
0.062477505
0.063975266
0.0654673
0.066953093
0.068432096
0.069903723
0.071367422
0.07282279
0.074269633
0.075707468
0.077135804
0.078554048
0.079961891
0.081358786
0.082744312
0.084118018
0.085479612
0.086828898
0.088165551
0.089489596
0.090800777
0.092099272
0.093384801
0.09465745
0.09591695
0.097163338
0.098396429
0.099616261
0.10082273
0.10201589
0.10319565
0.10436214
0.10551524
0.10665514
0.10778158
-7.705261e-06
0.00019210557
0.00040673672
0.00063677264
0.0008723118
0.0011072173
0.0013273061
0.0015296122
0.001696969
0.0018408702
0.0019474275
0.0020283523
0.0020595123
0.0020612556
0.0019972488
0.0018950859
0.0016932797
0.0014510839
0.001071333
0.00066416493
5.4266113e-05
-0.00054537225
-0.0014521496
-0.0020121735
-0.0025149725
-0.0028393912
-0.0031187251
-0.0032493978
-0.0033208059
-0.0032778744
-0.0031770324
-0.0029839138
-0.0027351199
-0.0024101205
-0.0020325187
-0.0015899096
-0.0010976045
-0.00054820908
4.8295239e-05
0.00069118334
0.001375068
0.0021069559
0.0028805733
0.0036965976
0.00455151
0.0054453355
0.0063755044
0.0073416472
0.0083417411
0.0093747484
0.01043854
0.01153025
0.012658557
0.013822524
0.015011126
0.01622687
0.017468935
0.018729071
0.020008104
0.021312727
0.022638729
0.023985149
0.025350768
0.026735814
0.028138928
0.029558235
0.030986688
0.032424617
0.033876776
0.035340029
0.036813809
0.038296512
0.03978746
0.041285281
0.042789195
0.044298045
0.045811076
0.047327175
0.04884562
0.050365324
0.051885677
0.053405694
0.054924749
0.056441814
0.05795629
0.059467381
0.060974654
0.062477419
0.063975158
0.06546717
0.066952942
0.068431921
0.069903529
0.071367204
0.072822556
0.074269376
0.075707193
0.077135505
0.078553734
0.079961554
0.081358435
0.08274394
0.084117631
0.085479208
0.086828479
0.088165118
0.089489148
0.090800317
0.092098797
0.093384316
0.09465695
0.095916439
0.097162815
0.098395896
0.099615716
0.10082217
0.10201533
0.10319508
0.10436156
0.10551466
0.10665454
0.10778097
-9.138574e-06
0.00019024888
0.00040483727
0.00063477155
0.00087025473
0.0011052018
0.0013254002
0.0015279066
0.0016955267
0.0018396895
0.0019464724
0.0020276733
0.0020590395
0.0020610389
0.0019972085
0.0018952865
0.0016935721
0.001451535
0.0010717496
0.00066464707
5.461511e-05
-0.00054495283
-0.001451519
-0.0020112719
-0.0025141896
-0.0028386143
-0.0031180029
-0.0032486659
-0.0033200844
-0.003277144
-0.0031763094
-0.0029831806
-0.0027343856
-0.0024093768
-0.0020317707
-0.0015891535
-0.0010968419
-0.00054743671
4.9087185e-05
0.00069196942
0.0013758398
0.0021077271
0.0028813462
0.0036973648
0.0045522751
0.0054460919
0.0063762571
0.0073423896
0.0083424748
0.0093754677
0.010439239
0.01153091
0.012659224
0.013823212
0.015011806
0.016227546
0.017469622
0.018729721
0.02000871
0.021313315
0.022639302
0.023985707
0.025351315
0.026736352
0.02813945
0.029558734
0.030987142
0.03242503
0.033877163
0.035340389
0.036814144
0.038296821
0.039787745
0.04128554
0.042789429
0.044298253
0.045811259
0.047327333
0.048845749
0.050365431
0.051885757
0.053405751
0.054924778
0.056441821
0.057956272
0.059467341
0.060974589
0.062477331
0.063975048
0.065467035
0.066952787
0.068431741
0.06990333
0.071366981
0.072822316
0.07426911
0.075706911
0.077135197
0.078553412
0.079961208
0.081358073
0.082743557
0.084117233
0.085478793
0.086828049
0.088164674
0.089488686
0.090799844
0.092098309
0.093383816
0.094656436
0.095915913
0.097162278
0.098395347
0.099615156
0.1008216
0.10201475
0.10319449
0.10436096
0.10551405
0.10665393
0.10778035
-1.0624888e-05
0.00018831822
0.00040285122
0.00063268171
0.00086810462
0.0011030913
0.0013233992
0.0015261094
0.0016939986
0.0018384295
0.001945445
0.0020269289
0.0020585105
0.0020607751
0.0019971295
0.0018954587
0.001693847
0.0014519754
0.0010721635
0.00066512926
5.4968405e-05
-0.00054454106
-0.001450938
-0.0020104011
-0.0025134209
-0.0028378512
-0.0031172871
-0.0032479394
-0.0033193673
-0.0032764164
-0.0031755868
-0.0029824461
-0.0027336479
-0.0024086284
-0.0020310161
-0.00158839
-0.0010960707
-0.00054665527
4.9879859e-05
0.000692757
0.0013766223
0.0021085098
0.0028821313
0.0036981444
0.0045530528
0.0054468611
0.0063770229
0.0073431452
0.0083432217
0.0093762004
0.010439952
0.0115316
0.012659919
0.013823916
0.015012501
0.016228234
0.017470304
0.018730365
0.020009328
0.021313914
0.022639887
0.023986276
0.025351872
0.0267369
0.028139983
0.029559256
0.030987617
0.032425452
0.033877557
0.035340756
0.036814486
0.038297137
0.039788036
0.041285804
0.042789668
0.044298466
0.045811445
0.047327493
0.048845881
0.050365538
0.051885837
0.053405808
0.054924807
0.056441827
0.057956252
0.059467298
0.060974521
0.062477239
0.063974933
0.065466896
0.066952627
0.068431556
0.069903124
0.07136675
0.072822068
0.074268837
0.075706619
0.07713488
0.07855308
0.079960851
0.0813577
0.082743162
0.084116823
0.085478366
0.086827605
0.088164216
0.089488211
0.090799357
0.092097806
0.093383302
0.094655907
0.095915371
0.097161724
0.098394782
0.09961458
0.10082101
0.10201415
0.10319389
0.10436034
0.10551343
0.1066533
0.10777971
-1.2168382e-05
0.0001863117
0.00040077216
0.00063049548
0.00086585326
0.0011008767
0.0013212929
0.0015242103
0.0016923737
0.0018370784
0.0019443327
0.0020261056
0.0020579124
0.0020604508
0.0019969977
0.0018955891
0.001694092
0.0014523931
0.0010725638
0.00066560077
5.5314768e-05
-0.00054414883
-0.001450417
-0.0020095683
-0.0025126722
-0.0028371071
-0.00311658
-0.0032472205
-0.0033186574
-0.0032756939
-0.0031748663
-0.002981712
-0.0027329082
-0.0024078764
-0.0020302562
-0.0015876199
-0.0010952917
-0.00054586603
5.066812e-05
0.0006935415
0.0013774147
0.0021093033
0.0028829281
0.003698936
0.0045538429
0.0054476428
0.0063778013
0.0073439135
0.0083439814
0.0093769463
0.010440682
0.011532325
0.01266065
0.013824635
0.015013209
0.016228935
0.017470972
0.018730996
0.020009955
0.021314524
0.022640483
0.023986855
0.025352439
0.026737457
0.028140525
0.0295598
0.030988114
0.03242588
0.033877957
0.035341129
0.036814833
0.038297457
0.039788331
0.041286072
0.042789909
0.04429868
0.045811632
0.047327654
0.048846012
0.050365645
0.051885916
0.053405863
0.054924834
0.056441829
0.057956228
0.059467251
0.060974448
0.062477142
0.063974811
0.06546675
0.066952459
0.068431362
0.069902909
0.071366509
0.07282181
0.074268553
0.075706317
0.07713455
0.078552735
0.079960481
0.081357314
0.082742752
0.084116399
0.085477923
0.086827145
0.088163742
0.089487719
0.090798853
0.092097286
0.09338277
0.094655359
0.095914811
0.097161152
0.098394197
0.099613984
0.10082041
0.10201353
0.10319326
0.10435971
0.10551279
0.10665264
0.10777905
-1.3774219e-05
0.00018422614
0.0003985932
0.00062820439
0.00086349105
0.0010985474
0.0013190697
0.0015221976
0.0016906389
0.0018356224
0.0019431211
0.002025188
0.0020572299
0.0020600508
0.0019967972
0.0018956617
0.0016942921
0.0014527735
0.0010729372
0.00066604836
5.5642291e-05
-0.00054379052
-0.0014499676
-0.0020087815
-0.0025119503
-0.0028363878
-0.0031158838
-0.0032465113
-0.0033179574
-0.0032749792
-0.0031741501
-0.00298098
-0.0027321679
-0.0024071222
-0.0020294918
-0.0015868442
-0.0010945058
-0.00054507027
5.1446688e-05
0.0006943183
0.0013782164
0.0021101072
0.0028837361
0.0036997391
0.0045546447
0.0054484364
0.0063785919
0.0073446941
0.0083447535
0.0093777051
0.010441428
0.011533095
0.012661422
0.013825369
0.015013931
0.016229644
0.017471618
0.018731605
0.020010592
0.021315143
0.022641088
0.023987444
0.025353015
0.026738022
0.028141073
0.029560363
0.030988629
0.032426314
0.033878362
0.035341505
0.036815184
0.03829778
0.039788628
0.04128634
0.042790151
0.044298894
0.045811818
0.047327812
0.048846141
0.050365749
0.051885991
0.053405913
0.054924854
0.056441825
0.057956197
0.059467195
0.060974366
0.062477035
0.06397468
0.065466593
0.066952279
0.068431156
0.069902681
0.071366255
0.072821537
0.074268253
0.075705998
0.077134205
0.078552374
0.079960093
0.081356909
0.082742324
0.084115955
0.08547746
0.086826665
0.088163247
0.089487206
0.090798327
0.092096745
0.093382216
0.09465479
0.095914228
0.097160557
0.09839359
0.099613365
0.10081978
0.10201289
0.10319261
0.10435905
0.10551212
0.10665196
0.10777837
-1.5448741e-05
0.00018205718
0.00039630697
0.00062579907
0.00086100729
0.0010960915
0.0013167163
0.0015200576
0.0016887793
0.0018340456
0.0019417937
0.0020241582
0.0020564458
0.0020595573
0.0019965092
0.0018956578
0.0016944295
0.0014530994
0.0010732673
0.00066645572
5.5935579e-05
-0.00054348311
-0.001449602
-0.0020080491
-0.0025112624
-0.0028356993
-0.003115201
-0.0032458138
-0.0033172702
-0.0032742745
-0.0031734399
-0.0029802516
-0.002731428
-0.0024063664
-0.0020287237
-0.0015860632
-0.0010937134
-0.00054426915
5.221068e-05
0.00069508327
0.001379027
0.0021109212
0.0028845548
0.0037005535
0.004555458
0.0054492419
0.0063793945
0.0073454867
0.0083455376
0.0093784764
0.01044219
0.011533914
0.012662242
0.013826117
0.015014665
0.016230361
0.017472232
0.018732185
0.020011236
0.021315771
0.022641702
0.023988041
0.025353599
0.026738593
0.028141626
0.029560939
0.030989157
0.032426749
0.033878768
0.035341882
0.036815533
0.038298101
0.039788922
0.041286605
0.042790388
0.044299103
0.045811998
0.047327964
0.048846261
0.050365843
0.051886057
0.053405953
0.054924864
0.056441809
0.057956153
0.059467125
0.060974269
0.062476912
0.063974532
0.065466418
0.066952082
0.06843093
0.069902433
0.07136598
0.072821244
0.074267932
0.075705658
0.077133836
0.078551989
0.079959681
0.08135648
0.082741871
0.084115485
0.085476971
0.086826159
0.088162725
0.089486666
0.090797774
0.092096175
0.093381633
0.094654191
0.095913616
0.097159933
0.098392953
0.099612716
0.10081912
0.10201222
0.10319193
0.10435835
0.10551142
0.10665126
0.10777765
-1.7199626e-05
0.00017979938
0.00039390519
0.0006232689
0.00085838995
0.0010934954
0.0013142177
0.0015177749
0.0016867779
0.0018323299
0.0019403313
0.0020229959
0.0020555399
0.0020589496
0.0019961116
0.0018955547
0.0016944824
0.0014533494
0.0010735342
0.00066680292
5.6175781e-05
-0.00054324646
-0.0014493334
-0.0020073798
-0.0025106158
-0.0028350477
-0.0031145337
-0.0032451294
-0.0033165978
-0.0032735814
-0.0031727367
-0.0029795275
-0.002730689
-0.0024056093
-0.0020279517
-0.0015852767
-0.0010929144
-0.00054346347
5.2956473e-05
0.00069583355
0.0013798467
0.0021117454
0.0028853846
0.0037013793
0.0045562829
0.0054500593
0.0063802088
0.0073462912
0.0083463334
0.0093792599
0.01044297
0.011534791
0.012663115
0.01382688
0.015015411
0.016231082
0.017472806
0.018732731
0.020011886
0.021316405
0.022642323
0.023988644
0.025354187
0.026739166
0.028142176
0.029561514
0.030989684
0.03242718
0.03387917
0.035342254
0.036815877
0.038298415
0.039789209
0.041286861
0.042790615
0.044299299
0.045812165
0.047328101
0.048846367
0.050365921
0.051886104
0.053405973
0.054924853
0.056441772
0.057956086
0.059467033
0.060974148
0.062476764
0.063974358
0.065466217
0.066951857
0.068430677
0.069902156
0.071365676
0.07282092
0.07426758
0.075705284
0.077133435
0.07855157
0.079959235
0.081356016
0.082741382
0.08411498
0.085476446
0.086825616
0.088162166
0.089486088
0.090797182
0.092095567
0.093381011
0.094653554
0.095912965
0.097159269
0.098392276
0.099612027
0.10081842
0.10201151
0.10319121
0.10435762
0.10551068
0.10665051
0.1077769
-1.9035257e-05
0.00017744588
0.00039137892
0.00062060211
0.00085562536
0.0010907441
0.0013115572
0.0015153318
0.0016846151
0.0018304544
0.001938712
0.0020216777
0.0020544888
0.0020582033
0.0019955787
0.001895326
0.0016944249
0.0014534984
0.0010737136
0.00066706596
5.6340266e-05
-0.00054310343
-0.0014491752
-0.0020067818
-0.0025100171
-0.0028344386
-0.003113884
-0.0032444589
-0.0033159413
-0.0032729005
-0.0031720406
-0.0029788071
-0.0027299499
-0.0024048497
-0.0020271745
-0.0015844835
-0.0010921076
-0.00054265337
5.3682794e-05
0.00069656859
0.0013806762
0.0021125807
0.002886226
0.0037022171
0.0045571199
0.0054508889
0.0063810353
0.0073471076
0.0083471409
0.0093800554
0.010443767
0.011535727
0.012664045
0.013827657
0.015016166
0.0162318
0.017473335
0.018733237
0.020012539
0.021317043
0.022642946
0.023989248
0.025354776
0.026739736
0.028142716
0.029562067
0.030990193
0.032427601
0.033879561
0.035342613
0.036816207
0.038298713
0.039789477
0.041287097
0.042790822
0.044299474
0.045812308
0.047328214
0.048846446
0.050365971
0.051886123
0.053405963
0.05492481
0.0564417
0.057955985
0.059466904
0.06097399
0.062476578
0.063974144
0.065465975
0.066951589
0.06843038
0.069901835
0.071365326
0.072820549
0.074267181
0.075704863
0.077132985
0.078551101
0.079958739
0.0813555
0.082740842
0.084114422
0.085475868
0.086825019
0.088161553
0.089485456
0.090796537
0.092094904
0.093380335
0.094652862
0.095912259
0.09715855
0.098391544
0.099611283
0.10081766
0.10201074
0.10319044
0.10435684
0.10550989
0.1066497
0.10777609
-2.0965193e-05
0.00017498861
0.00038871797
0.00061778578
0.00085269848
0.0010878203
0.0013087162
0.0015127086
0.0016822687
0.0018283953
0.0019369109
0.0020201767
0.0020532656
0.0020572902
0.0019948805
0.0018949404
0.0016942257
0.0014535161
0.0010737765
0.00066721616
5.6402253e-05
-0.00054307989
-0.0014491407
-0.0020062624
-0.0025094717
-0.0028338764
-0.0031132535
-0.0032438022
-0.0033153001
-0.0032722307
-0.0031713497
-0.0029780885
-0.0027292085
-0.0024040851
-0.0020263895
-0.0015836808
-0.0010912905
-0.00054183788
5.4391822e-05
0.00069729121
0.0013815174
0.0021134289
0.0028870806
0.0037030684
0.00455797
0.0054517315
0.0063818742
0.0073479362
0.0083479598
0.0093808623
0.010444582
0.011536724
0.012665031
0.013828446
0.015016928
0.016232511
0.017473815
0.018733704
0.020013192
0.021317679
0.022643568
0.02398985
0.025355358
0.026740295
0.028143232
0.029562574
0.030990659
0.032428
0.033879929
0.035342948
0.03681651
0.038298983
0.039789715
0.041287301
0.042790993
0.044299612
0.045812412
0.047328285
0.048846482
0.050365976
0.051886094
0.053405904
0.054924717
0.056441577
0.05795583
0.059466719
0.060973774
0.062476332
0.06397387
0.06546567
0.066951258
0.068430019
0.069901448
0.071364909
0.07282011
0.074266712
0.075704372
0.077132463
0.078550561
0.07995817
0.081354912
0.082740227
0.084113789
0.085475214
0.086824347
0.088160864
0.089484748
0.090795814
0.092094165
0.093379581
0.094652093
0.095911475
0.097157754
0.098390735
0.099610462
0.10081683
0.1020099
0.10318958
0.10435597
0.10550902
0.10664882
0.1077752
-2.2999626e-05
0.00017241807
0.0003859111
0.00061480534
0.00084959244
0.001084705
0.0013056738
0.0015098826
0.0016797134
0.0018261256
0.0019348991
0.0020184626
0.0020518395
0.0020561771
0.001993982
0.001894361
0.0016938479
0.0014533665
0.0010736883
0.00066721951
5.633055e-05
-0.00054320465
-0.0014492427
-0.0020058277
-0.0025089831
-0.0028333633
-0.0031126428
-0.0032431576
-0.0033146717
-0.0032715688
-0.0031706603
-0.0029773673
-0.0027284602
-0.0024033107
-0.002025592
-0.001582864
-0.0010904592
-0.00054101443
5.5089979e-05
0.00069800825
0.0013823737
0.0021142926
0.0028879508
0.0037039352
0.0045588351
0.0054525888
0.0063827268
0.0073487776
0.0083487903
0.0093816801
0.010445411
0.011537775
0.012666067
0.013829244
0.015017692
0.016233207
0.017474248
0.018734135
0.020013838
0.021318308
0.02264418
0.023990439
0.025355925
0.02674083
0.028143707
0.029562999
0.030991053
0.032428361
0.033880259
0.035343242
0.03681677
0.038299206
0.039789904
0.041287452
0.042791109
0.044299691
0.045812455
0.047328292
0.048846451
0.050365912
0.051885994
0.05340577
0.054924547
0.056441374
0.057955594
0.059466451
0.060973473
0.062476
0.063973507
0.065465275
0.066950835
0.068429563
0.069900965
0.071364395
0.072819573
0.074266143
0.075703779
0.07713184
0.078549916
0.079957497
0.081354217
0.082739507
0.08411305
0.085474454
0.086823567
0.088160066
0.089483931
0.090794982
0.092093316
0.093378719
0.094651214
0.095910583
0.09715685
0.098389817
0.099609533
0.10081589
0.10200895
0.10318863
0.104355
0.10550804
0.10664784
0.10777421
-2.5149576e-05
0.00016972344
0.00038294556
0.00061164486
0.00084628839
0.0010813768
0.001302407
0.0015068286
0.0016769207
0.0018236144
0.001932644
0.0020165005
0.0020501733
0.0020548256
0.001992843
0.0018935446
0.0016932477
0.0014530076
0.0010734085
0.00066703636
5.60892e-05
-0.00054350922
-0.0014494926
-0.0020054814
-0.002508552
-0.0028328985
-0.003112051
-0.0032425216
-0.0033140509
-0.0032709089
-0.0031699661
-0.0029766371
-0.0027276982
-0.0024025199
-0.0020247753
-0.0015820268
-0.001089608
-0.00054017838
5.5788107e-05
0.00069873064
0.0013832495
0.0021151762
0.0028888405
0.0037048208
0.0045597177
0.0054534625
0.0063835942
0.0073496322
0.0083496321
0.0093825078
0.010446255
0.011538871
0.012667143
0.013830047
0.015018452
0.016233879
0.017474638
0.018734534
0.020014469
0.02131892
0.022644773
0.023991005
0.025356463
0.026741325
0.028144116
0.029563305
0.030991339
0.032428665
0.03388053
0.035343472
0.036816962
0.038299358
0.039790018
0.041287525
0.042791143
0.044299685
0.045812409
0.047328206
0.048846324
0.050365747
0.05188579
0.05340553
0.054924267
0.056441059
0.057955241
0.059466064
0.060973051
0.062475543
0.063973016
0.065464751
0.06695028
0.068428974
0.069900346
0.071363744
0.072818896
0.074265434
0.075703043
0.077131072
0.078549127
0.079956677
0.081353375
0.082738638
0.084112161
0.085473543
0.086822637
0.088159118
0.089482964
0.090794
0.092092317
0.093377705
0.094650186
0.09590954
0.097155795
0.09838875
0.099608455
0.1008148
0.10200785
0.10318752
0.10435389
0.10550692
0.10664671
0.10777308
-2.7426749e-05
0.00016689229
0.00037980731
0.00060828663
0.00084276545
0.001077812
0.0012988901
0.0015035179
0.0016738584
0.001820827
0.0019301084
0.0020142511
0.0020482252
0.002053191
0.0019914168
0.0018924413
0.0016923739
0.0014523902
0.0010728896
0.00066662101
5.5637711e-05
-0.0005440273
-0.0014499
-0.0020052247
-0.0025081761
-0.0028324777
-0.0031114745
-0.0032418887
-0.0033134295
-0.0032702424
-0.0031692579
-0.0029758884
-0.0027269132
-0.0024017032
-0.0020239305
-0.0015811606
-0.0010887293
-0.00053932267
5.6500891e-05
0.00069947271
0.0013841513
0.0021160851
0.0028897542
0.0037057291
0.0045606211
0.005454355
0.0063844779
0.0073505007
0.0083504848
0.0093833439
0.010447109
0.011539997
0.012668244
0.013830848
0.015019197
0.016234518
0.017474988
0.018734905
0.020015073
0.021319502
0.02264533
0.023991531
0.025356953
0.026741757
0.028144429
0.02956345
0.03099148
0.032428886
0.033880715
0.035343612
0.036817059
0.03829941
0.039790026
0.041287487
0.042791061
0.044299557
0.045812237
0.047327989
0.048846061
0.050365442
0.051885442
0.05340514
0.054923834
0.056440586
0.057954728
0.059465512
0.06097246
0.062474914
0.063972352
0.065464049
0.066949545
0.068428201
0.069899541
0.071362904
0.072818028
0.074264532
0.075702113
0.077130109
0.078548139
0.079955658
0.081352333
0.082737568
0.08411107
0.085472429
0.086821502
0.088157965
0.089481792
0.090792813
0.092091114
0.093376487
0.094648953
0.095908294
0.097154538
0.09838748
0.099607176
0.10081351
0.10200656
0.10318622
0.10435258
0.10550561
0.10664538
0.10777175
-2.9843544e-05
0.00016391081
0.00037648049
0.00060471113
0.00083900059
0.0010739843
0.0012950945
0.0014999185
0.0016704903
0.0018177239
0.0019272504
0.0020116694
0.0020459473
0.002051222
0.00198965
0.001890993
0.0016911672
0.0014514576
0.0010720773
0.0006659216
5.4931164e-05
-0.00054479425
-0.0014504714
-0.0020050552
-0.0025078497
-0.0028320921
-0.003110907
-0.0032412506
-0.0033127961
-0.0032695573
-0.0031685237
-0.002975109
-0.0027260932
-0.0024008492
-0.0020230463
-0.0015802552
-0.0010878138
-0.00053843782
5.7245641e-05
0.00070025092
0.0013850868
0.0021170261
0.0028906978
0.0037066649
0.0045615487
0.0054552687
0.0063853791
0.007351383
0.0083513469
0.0093841855
0.010447969
0.011541134
0.012669351
0.013831637
0.015019917
0.016235113
0.017475302
0.018735246
0.020015634
0.021320035
0.022645834
0.023991994
0.025357371
0.026742096
0.028144608
0.029563393
0.030991441
0.03242899
0.033880781
0.035343627
0.036817024
0.038299322
0.039789888
0.041287296
0.04279082
0.044299264
0.045811893
0.047327595
0.048845616
0.050364949
0.051884899
0.053404551
0.054923196
0.056439903
0.057954
0.059464741
0.060971646
0.062474058
0.063971455
0.065463111
0.06694857
0.068427186
0.06989849
0.071361815
0.072816908
0.074263375
0.075700926
0.077128886
0.07854689
0.079954376
0.081351026
0.082736231
0.084109712
0.085471047
0.0868201
0.088156544
0.089480351
0.090791356
0.092089641
0.093375001
0.094647453
0.09590678
0.097153015
0.098385946
0.099605633
0.10081196
0.102005
0.10318465
0.10435101
0.10550404
0.10664381
0.10777018
-3.2413109e-05
0.00016076362
0.00037294769
0.00060089678
0.00083496823
0.0010698645
0.0012909888
0.0014959941
0.0016667757
0.0018142607
0.0019240223
0.0020087051
0.0020432846
0.0020488599
0.0019874814
0.0018891338
0.0016895603
0.0014501455