/*--------------------------------*- C++ -*----------------------------------*\
| =========                 |                                                 |
| \\      /  F ield         | OpenFOAM: The Open Source CFD Toolbox           |
|  \\    /   O peration     | Version:  2.4.0                                 |
|   \\  /    A nd           | Web:      www.OpenFOAM.org                      |
|    \\/     M anipulation  |                                                 |
\*---------------------------------------------------------------------------*/
FoamFile
{
    version     2.0;
    format      ascii;
    class       volVectorField;
    location    "380";
    object      U;
}
// * * * * * * * * * * * * * * * * * * * * * * * * * * * * * * * * * * * * * //

dimensions      [0 1 -1 0 0 0 0];

internalField   nonuniform List<vector> 
19698
(
(-0.00086040276 0.00063380853 -3.097783e-24)
(-0.00089355507 0.0006455568 -2.6294235e-22)
(-0.00092380686 0.00065201854 -8.4145465e-22)
(-0.00094984774 0.00065203064 -1.4893043e-21)
(-0.00097145254 0.00064546158 3.2148048e-21)
(-0.00098690915 0.00063120402 4.3920417e-21)
(-0.00099780899 0.00061046289 -1.8034164e-21)
(-0.0010030347 0.00058270501 -5.616873e-21)
(-0.0010097283 0.00055269414 6.0006736e-21)
(-0.0010153863 0.0005206437 -5.1405047e-21)
(-0.001018906 0.00048655035 -1.1831115e-20)
(-0.001016166 0.00044878721 1.6091416e-21)
(-0.0010109252 0.00040959711 -2.3012176e-21)
(-0.00099523042 0.00036628352 -8.9373069e-21)
(-0.00097888358 0.00032338146 -2.8851013e-21)
(-0.00094630037 0.00027635779 2.486142e-21)
(-0.00091799016 0.00023244849 1.7902686e-21)
(-0.00086665863 0.00018527376 3.6040108e-21)
(-0.00083508658 0.00014523612 4.858851e-23)
(-0.00077637408 0.0001036457 -1.7482923e-21)
(-0.00077560809 7.1935645e-05 3.304161e-23)
(-0.00074992355 3.8718649e-05 -5.0505506e-23)
(-0.00090511127 1.0841043e-05 -1.5167309e-22)
(-0.0012098999 3.6935524e-07 5.6442349e-26)
(-0.0014150487 3.6227572e-07 -6.6279357e-26)
(-0.0016213514 3.2883814e-07 -3.095449e-25)
(-0.0017892929 3.4743508e-07 3.43362e-25)
(-0.0019544877 3.3449873e-07 -3.4730727e-25)
(-0.0020932361 3.5104354e-07 2.2371592e-25)
(-0.0022274025 3.4431441e-07 -2.7729702e-25)
(-0.0023433386 3.5601962e-07 1.8125236e-25)
(-0.0024545375 3.5436301e-07 3.3054076e-25)
(-0.0025529888 3.639686e-07 -4.1213637e-25)
(-0.0026470538 3.650503e-07 -1.4463611e-18)
(-0.0027320154 3.7302231e-07 -1.2186467e-18)
(-0.0028130269 3.7546424e-07 4.4122776e-25)
(-0.0028872343 3.8204117e-07 -1.8762733e-25)
(-0.0029576658 3.8504374e-07 -6.84857e-26)
(-0.0030224172 3.9128742e-07 -2.6262988e-26)
(-0.0030837845 3.8961526e-07 3.4707842e-26)
(-0.0031407021 3.8879985e-07 -8.9212631e-26)
(-0.003194518 3.9015104e-07 3.2108104e-25)
(-0.0032445882 3.9174085e-07 -1.7231752e-25)
(-0.0032917288 3.9139401e-07 -4.4853618e-25)
(-0.0033355879 3.9118598e-07 4.8654809e-25)
(-0.0033766582 3.893474e-07 -7.0136679e-26)
(-0.003414725 3.8760513e-07 5.7940833e-25)
(-0.0034501159 3.8446106e-07 -7.9587838e-25)
(-0.0034826955 3.8089056e-07 -6.2652586e-25)
(-0.0035127037 3.755089e-07 9.5977331e-25)
(-0.0035399089 3.6823366e-07 -8.1017697e-25)
(-0.0035647125 3.5943026e-07 6.4650635e-25)
(-0.003586763 3.6009773e-07 -3.6709257e-25)
(-0.0036077093 3.6181824e-07 -7.7738277e-26)
(-0.0036263408 3.5640721e-07 2.6821142e-26)
(-0.0036428508 3.5142974e-07 5.4578281e-25)
(-0.0036567017 3.4895415e-07 -4.6514956e-26)
(-0.0036685032 3.3705529e-07 8.1095782e-25)
(-0.0036781915 3.2294589e-07 -4.0965463e-27)
(-0.0036861173 3.1541589e-07 -1.5976356e-24)
(-0.0036925285 3.0798432e-07 7.5844529e-25)
(-0.0036977272 3.0114319e-07 -7.2754147e-26)
(-0.0037023593 2.9542867e-07 1.0821628e-24)
(-0.0037067985 2.9060022e-07 -2.7236937e-26)
(-0.0037118238 2.8355845e-07 -2.1180446e-24)
(-0.0037161542 2.6791471e-07 -1.4606568e-25)
(-0.0037182302 2.4834182e-07 7.3488942e-26)
(-0.0037114327 2.327627e-07 1.0878293e-24)
(-0.0037023599 2.1838278e-07 -1.0858034e-25)
(-0.0036902834 2.051899e-07 -1.3711182e-24)
(-0.0036763147 1.9257941e-07 2.5338691e-24)
(-0.0036604776 1.8015032e-07 -2.8989744e-24)
(-0.003643016 1.676569e-07 2.730406e-24)
(-0.0036239261 1.5506229e-07 -5.2494663e-25)
(-0.0036033384 1.4240212e-07 3.2065928e-25)
(-0.0035812614 1.2975174e-07 -1.3565113e-24)
(-0.0035577867 1.1698019e-07 7.6875761e-25)
(-0.003532936 1.0425411e-07 2.0732389e-25)
(-0.0035067841 9.1240196e-08 -1.4944283e-25)
(-0.0034793619 7.8665249e-08 -1.4642981e-25)
(-0.0034507354 6.581047e-08 3.1068356e-17)
(-0.0034209402 5.3379781e-08 3.1969606e-17)
(-0.0033900353 4.0610319e-08 1.8723741e-24)
(-0.0033580605 2.826922e-08 -1.5214164e-25)
(-0.0033250742 1.5754872e-08 -1.75395e-25)
(-0.0032911191 3.6313049e-09 -1.2726769e-25)
(-0.0032562493 -8.6150161e-09 -1.054892e-26)
(-0.0032205059 -2.0470806e-08 -4.2980777e-25)
(-0.0031839391 -3.2278999e-08 -1.9695553e-25)
(-0.0031465919 -4.3992383e-08 6.8582704e-25)
(-0.0031085132 -5.5320409e-08 3.7399414e-26)
(-0.0030697452 -6.679552e-08 3.753158e-25)
(-0.0030303338 -7.7787828e-08 -6.2163821e-25)
(-0.0029903236 -8.8901656e-08 8.6956004e-26)
(-0.00294976 -9.9306422e-08 2.0148907e-26)
(-0.0029086835 -1.1010893e-07 3.940875e-26)
(-0.0028671308 -1.2019023e-07 3.8206574e-27)
(-0.0028251413 -1.3060621e-07 2.5262012e-25)
(-0.0027827532 -1.4011907e-07 -1.1186599e-25)
(-0.002740006 -1.5009625e-07 -6.0377969e-25)
(-0.002696934 -1.5915207e-07 1.1602009e-24)
(-0.0026535746 -1.6849184e-07 -1.6793524e-24)
(-0.0026099644 -1.7711025e-07 2.8603251e-26)
(-0.0025661392 -1.8560202e-07 8.9536931e-25)
(-0.0025221338 -1.9385462e-07 -2.5413418e-25)
(-0.0024779821 -2.016589e-07 6.0836154e-25)
(-0.0024337186 -2.0953085e-07 -2.5655299e-25)
(-0.0023893747 -2.1678653e-07 -1.6406094e-26)
(-0.0023449824 -2.2414834e-07 -2.9100505e-25)
(-0.0023005694 -2.3092003e-07 -2.9906767e-25)
(-0.0022561651 -2.3786533e-07 -2.8356138e-25)
(-0.0022117975 -2.4431229e-07 1.0776769e-24)
(-0.0021674917 -2.5060339e-07 7.0171559e-25)
(-0.0021232778 -2.5664935e-07 1.1526513e-24)
(-0.0020791742 -2.624542e-07 -4.5668422e-25)
(-0.0020352139 -2.6792493e-07 -1.2928743e-24)
(-0.0019914069 -2.7330355e-07 -3.1319768e-24)
(-0.001947791 -2.783143e-07 6.1772991e-17)
(-0.0019043688 -2.8337046e-07 2.9588048e-20)
(-0.0018611808 -2.878757e-07 -6.3191543e-17)
(-0.0018182229 -2.9257942e-07 -4.8167497e-24)
(-0.0017755363 -2.9658797e-07 7.0335685e-25)
(-0.0026014206 0.0019190877 6.3529709e-25)
(-0.0027011 0.0019544486 -1.4783204e-21)
(-0.0027922296 0.0019737851 -5.3648896e-22)
(-0.0028707651 0.0019737173 -5.9898399e-22)
(-0.0029361553 0.0019538047 1.6747848e-21)
(-0.0029833472 0.001910782 -1.121672e-20)
(-0.0030170529 0.0018482065 4.0117747e-21)
(-0.0030340169 0.0017646002 -3.2610906e-21)
(-0.0030554748 0.0016741423 -3.6502337e-22)
(-0.0030739912 0.0015774884 -3.3370545e-21)
(-0.0030861969 0.0014745723 2.3713253e-21)
(-0.0030799878 0.0013606561 -1.2737142e-20)
(-0.0030663227 0.001242284 -8.9791782e-22)
(-0.0030217987 0.0011115959 2.8880556e-21)
(-0.002975416 0.0009819097 -7.7858531e-22)
(-0.0028814239 0.00084003887 7.6184177e-21)
(-0.0028000566 0.00070715439 -6.8713082e-21)
(-0.0026510628 0.00056473569 4.7626045e-21)
(-0.0025604425 0.00044325466 -1.0493382e-21)
(-0.0023914777 0.0003177063 5.8173425e-23)
(-0.0023945979 0.0002212818 1.2108871e-23)
(-0.0023296036 0.00012164218 -1.0951641e-21)
(-0.0027989643 3.8981549e-05 2.312449e-22)
(-0.0037058631 7.0684262e-06 -5.0818994e-25)
(-0.0043210172 5.8695033e-06 -8.58171e-27)
(-0.0049378926 5.2440014e-06 -1.7186535e-25)
(-0.0054408635 4.7560111e-06 5.7420429e-25)
(-0.0059340553 4.285215e-06 -3.5342404e-25)
(-0.0063490359 3.9055555e-06 1.2236765e-25)
(-0.0067495255 3.5488032e-06 1.1711452e-25)
(-0.007096009 3.2618981e-06 1.0350541e-25)
(-0.0074278236 2.9948553e-06 -3.973655e-25)
(-0.0077218539 2.7772537e-06 1.5128176e-25)
(-0.0080024548 2.5754897e-06 6.962103e-26)
(-0.0082560365 2.4073879e-06 3.7088556e-26)
(-0.008497601 2.2497819e-06 -3.5212945e-25)
(-0.0087189357 2.1116238e-06 1.8186747e-25)
(-0.0089288409 1.9765151e-06 -4.012776e-26)
(-0.0091219078 1.852329e-06 1.0181234e-26)
(-0.0093048199 1.7368307e-06 1.1492124e-25)
(-0.0094742821 1.6361322e-06 1.4988571e-26)
(-0.0096343417 1.539258e-06 -3.5763694e-26)
(-0.0097832387 1.4489119e-06 -9.1498943e-26)
(-0.0099233221 1.361385e-06 -1.5185881e-25)
(-0.010053586 1.2776601e-06 -2.1660867e-25)
(-0.010175464 1.1956719e-06 -2.8554172e-25)
(-0.010288345 1.1162669e-06 6.5522126e-25)
(-0.010393184 1.0382898e-06 1.4270231e-25)
(-0.010489605 9.621866e-07 1.1725387e-24)
(-0.010578317 8.8527438e-07 -1.8675577e-24)
(-0.010658691 8.0897561e-07 1.3708108e-24)
(-0.010731688 7.4132434e-07 -3.6475515e-25)
(-0.010796103 6.9023769e-07 -1.4346608e-24)
(-0.010857541 6.3860654e-07 -6.2074312e-25)
(-0.010912195 5.7678728e-07 5.946016e-25)
(-0.010960425 5.0913391e-07 3.7872595e-25)
(-0.011000823 4.3692706e-07 1.1488645e-24)
(-0.011035205 3.740864e-07 9.3942974e-25)
(-0.011062985 3.2074488e-07 -2.7972703e-24)
(-0.011085424 2.7271964e-07 9.3924635e-25)
(-0.011103396 2.3356313e-07 6.09316e-25)
(-0.011117765 2.0703989e-07 1.6416618e-24)
(-0.011130437 1.9526728e-07 -3.5457869e-24)
(-0.011142569 1.9956543e-07 1.7216426e-24)
(-0.011156541 1.970111e-07 7.853886e-25)
(-0.01116878 1.529721e-07 1.4512527e-24)
(-0.011174518 -4.7302414e-09 -3.7191336e-24)
(-0.011153061 -1.6519731e-07 8.3450955e-25)
(-0.011124593 -2.4477933e-07 2.403707e-25)
(-0.011087205 -3.1556597e-07 3.0681667e-24)
(-0.011044153 -3.7115389e-07 -2.6226634e-24)
(-0.010995525 -4.2244266e-07 1.0634607e-24)
(-0.01094204 -4.7103583e-07 -9.83936e-27)
(-0.010883696 -5.1741464e-07 -3.3977039e-24)
(-0.010820875 -5.6218675e-07 6.4868644e-25)
(-0.010753608 -6.0542944e-07 7.6030246e-25)
(-0.010682166 -6.4728067e-07 4.7747305e-25)
(-0.010606617 -6.8760665e-07 1.2938061e-24)
(-0.010527184 -7.2659594e-07 1.1971537e-25)
(-0.010443959 -7.6413351e-07 -7.1800008e-25)
(-0.010357139 -8.004685e-07 4.1599698e-25)
(-0.010266832 -8.3529748e-07 -6.0250791e-25)
(-0.010173215 -8.6894678e-07 2.5833086e-25)
(-0.010076411 -9.0116011e-07 -4.0181103e-25)
(-0.0099765877 -9.3186425e-07 8.975108e-25)
(-0.0098738742 -9.6109937e-07 -1.6709163e-24)
(-0.0097684299 -9.8901294e-07 -3.666465e-25)
(-0.009660381 -1.0155784e-06 6.5951896e-25)
(-0.0095498784 -1.0409046e-06 1.2567138e-24)
(-0.0094370516 -1.0648796e-06 -1.6716829e-25)
(-0.0093220453 -1.0876114e-06 -3.6715388e-25)
(-0.0092049878 -1.1088482e-06 -6.8945388e-25)
(-0.0090860169 -1.1289758e-06 6.3590373e-25)
(-0.0089652645 -1.1476488e-06 -1.547405e-25)
(-0.0088428605 -1.1652119e-06 -1.2459674e-26)
(-0.0087189294 -1.1814382e-06 -7.8955142e-26)
(-0.0085935852 -1.196784e-06 1.0630007e-26)
(-0.0084669492 -1.2109205e-06 3.7544723e-25)
(-0.0083391331 -1.223938e-06 -6.8235258e-25)
(-0.0082102544 -1.2356676e-06 -1.1264637e-25)
(-0.0080804192 -1.2466139e-06 -4.6942919e-25)
(-0.007949738 -1.2562457e-06 1.3830967e-24)
(-0.0078183187 -1.2648885e-06 1.1695371e-24)
(-0.0076862652 -1.2723483e-06 -2.1464392e-25)
(-0.0075536828 -1.2788575e-06 -2.9346464e-24)
(-0.0074206691 -1.2842642e-06 -1.7468425e-24)
(-0.0072873284 -1.28874e-06 2.5619913e-24)
(-0.0071537515 -1.2922956e-06 3.9642362e-24)
(-0.0070200353 -1.2951221e-06 -6.7050312e-24)
(-0.0068862651 -1.2969213e-06 1.6565692e-24)
(-0.0067525286 -1.2979767e-06 -1.497867e-25)
(-0.0066189113 -1.2980746e-06 3.3169966e-24)
(-0.0064854872 -1.2974988e-06 -2.4334047e-24)
(-0.0063523469 -1.2960454e-06 1.1978944e-24)
(-0.0062195443 -1.2939307e-06 1.6821881e-24)
(-0.0060871791 -1.2911774e-06 3.6944683e-24)
(-0.0059552808 -1.2877152e-06 -9.2604471e-24)
(-0.0058239614 -1.2835856e-06 3.7153578e-24)
(-0.0056932305 -1.2789387e-06 -1.3859587e-25)
(-0.005563208 -1.2736273e-06 -5.6616105e-24)
(-0.005433885 -1.267784e-06 -2.0352055e-25)
(-0.0053053869 -1.2612448e-06 1.0180301e-23)
(-0.0043918069 0.0032413611 5.1712182e-24)
(-0.0045594372 0.0033004996 2.3506991e-21)
(-0.0047127868 0.0033326683 2.3784905e-21)
(-0.004845111 0.0033322408 1.3698441e-23)
(-0.0049555349 0.0032984491 -1.3467511e-20)
(-0.0050357374 0.0032259591 5.678838e-21)
(-0.0050934905 0.0031206076 7.7978786e-21)
(-0.0051235509 0.0029801662 7.1997225e-21)
(-0.0051612194 0.0028281519 1.2017528e-21)
(-0.0051942338 0.0026656683 -3.29391e-21)
(-0.0052167794 0.0024924627 1.2462091e-20)
(-0.005209039 0.0023009153 3.3566136e-21)
(-0.0051887902 0.0021015733 1.5672873e-21)
(-0.0051176897 0.0018817663 1.4187088e-20)
(-0.0050434295 0.0016631867 -8.3005737e-21)
(-0.0048912215 0.0014245758 -9.1045183e-21)
(-0.0047595837 0.0012002757 2.502403e-21)
(-0.0045171815 0.00096050013 -2.7909945e-21)
(-0.0043706469 0.0007547749 2.1464222e-21)
(-0.0040981981 0.00054324995 2.8840955e-21)
(-0.0041103025 0.00037937812 1.3772042e-23)
(-0.0040197446 0.00021226946 6.7693063e-23)
(-0.0048122844 7.5189623e-05 -3.3331991e-22)
(-0.0063210125 2.1195961e-05 4.9541439e-25)
(-0.0073532683 1.7421181e-05 -2.7797898e-27)
(-0.0083842325 1.5660379e-05 -1.3693604e-25)
(-0.0092267444 1.4066061e-05 3.7629357e-25)
(-0.010050058 1.2712105e-05 -1.6265466e-25)
(-0.010744332 1.1496741e-05 -1.7637702e-25)
(-0.011412843 1.0461555e-05 3.7403446e-25)
(-0.01199208 9.5496614e-06 -1.8779878e-25)
(-0.012545831 8.7668517e-06 -1.7508268e-25)
(-0.013037065 8.0798023e-06 -1.505301e-25)
(-0.013505248 7.4827276e-06 9.7371799e-26)
(-0.013928657 6.9543591e-06 2.5487303e-26)
(-0.014331591 6.4834725e-06 3.5544921e-26)
(-0.01470094 6.0516489e-06 -9.3829416e-26)
(-0.015050939 5.6454898e-06 -1.827695e-26)
(-0.015372999 5.2713182e-06 9.4832935e-27)
(-0.015678015 4.9285843e-06 -7.6712807e-26)
(-0.015960338 4.6120045e-06 5.8029086e-26)
(-0.016226778 4.3175951e-06 3.803752e-25)
(-0.016474603 4.0402456e-06 -2.6637386e-25)
(-0.016707595 3.7753781e-06 -1.4202256e-25)
(-0.016924163 3.5209165e-06 7.5266231e-25)
(-0.017126631 3.2741667e-06 -5.6739379e-25)
(-0.017314035 3.0351776e-06 3.9492394e-25)
(-0.017487927 2.8020331e-06 -2.6508257e-25)
(-0.017647724 2.5749957e-06 -1.4639205e-25)
(-0.01779459 2.3475153e-06 5.4997192e-25)
(-0.017927561 2.1216567e-06 6.6637719e-25)
(-0.018047978 1.9021965e-06 -2.4534744e-24)
(-0.018153475 1.744595e-06 1.9032694e-24)
(-0.018254537 1.6051262e-06 -5.3159176e-25)
(-0.018344404 1.4238565e-06 -1.8291644e-24)
(-0.018423465 1.2261414e-06 7.8400945e-25)
(-0.018489557 1.0294708e-06 2.6862699e-24)
(-0.018545809 8.4835779e-07 -4.931668e-25)
(-0.018590544 6.8126628e-07 -7.700434e-25)
(-0.018626311 5.4122977e-07 -6.7064432e-25)
(-0.018654661 4.2886646e-07 -7.5665206e-25)
(-0.018677007 3.5411642e-07 1.5678038e-24)
(-0.018696507 3.2348125e-07 -7.9995069e-25)
(-0.018715161 3.4163241e-07 -1.1493189e-24)
(-0.018736983 3.4322178e-07 1.8266553e-24)
(-0.018756441 2.2214014e-07 -9.482866e-25)
(-0.018765383 -2.4656672e-07 -1.0410425e-24)
(-0.01872788 -7.2063607e-07 1.0244149e-24)
(-0.018678325 -9.4792613e-07 1.7740484e-24)
(-0.018613986 -1.151303e-06 2.260612e-25)
(-0.018540162 -1.3093525e-06 -1.5030417e-24)
(-0.01845704 -1.4547224e-06 -1.2578756e-24)
(-0.018365795 -1.5907615e-06 4.1359633e-24)
(-0.018266439 -1.7209374e-06 -6.5453811e-24)
(-0.0181596 -1.8458965e-06 5.5590115e-24)
(-0.018045337 -1.9660556e-06 -4.7493487e-24)
(-0.017924098 -2.0819062e-06 1.8747044e-24)
(-0.017796003 -2.1930761e-06 8.8666354e-25)
(-0.017661419 -2.3005132e-06 2.2768267e-25)
(-0.017520509 -2.4033251e-06 -1.6476979e-24)
(-0.017373593 -2.5022828e-06 1.0209178e-24)
(-0.017220859 -2.5966631e-06 -9.6767942e-25)
(-0.017062603 -2.6874251e-06 1.5476436e-24)
(-0.016899028 -2.773603e-06 6.8505679e-25)
(-0.016730416 -2.8561255e-06 -1.7525953e-24)
(-0.016556982 -2.9340397e-06 -1.0545812e-25)
(-0.016378991 -3.0083046e-06 2.1497705e-25)
(-0.016196657 -3.0784024e-06 -1.0598586e-25)
(-0.016010232 -3.1447637e-06 -1.1017772e-25)
(-0.015819933 -3.2070694e-06 4.3483902e-25)
(-0.015626002 -3.2656578e-06 4.7389955e-25)
(-0.015428655 -3.3207023e-06 -1.5489588e-25)
(-0.015228122 -3.3717948e-06 -4.462155e-26)
(-0.015024622 -3.4193535e-06 7.8991573e-26)
(-0.014818371 -3.4629654e-06 9.1779083e-26)
(-0.014609576 -3.5038438e-06 -6.525482e-26)
(-0.014398433 -3.5409766e-06 4.9026068e-26)
(-0.014185147 -3.5751645e-06 9.380067e-26)
(-0.013969901 -3.6057103e-06 -6.9138286e-25)
(-0.013752893 -3.6336512e-06 1.6131029e-24)
(-0.013534303 -3.6580877e-06 1.1642673e-25)
(-0.013314313 -3.6797445e-06 -9.9817595e-26)
(-0.013093104 -3.6981323e-06 1.191675e-25)
(-0.012870847 -3.7136403e-06 -1.0430647e-25)
(-0.012647719 -3.7264341e-06 1.2184594e-25)
(-0.012423881 -3.7360051e-06 -2.0234706e-24)
(-0.012199507 -3.7434527e-06 -1.3116344e-24)
(-0.011974749 -3.7476512e-06 2.5683782e-24)
(-0.011749768 -3.7498866e-06 1.1757432e-25)
(-0.011524709 -3.7492061e-06 1.9000713e-24)
(-0.011299718 -3.746627e-06 -2.157149e-24)
(-0.01107494 -3.741502e-06 4.3949569e-25)
(-0.010850497 -3.7343169e-06 -1.9661908e-25)
(-0.010626541 -3.724768e-06 -1.1198175e-24)
(-0.010403163 -3.7134349e-06 -4.2075122e-24)
(-0.010180528 -3.7000487e-06 1.3182857e-23)
(-0.0099586869 -3.685021e-06 -7.535345e-24)
(-0.0097378255 -3.6679529e-06 9.9572668e-25)
(-0.0095179624 -3.6494263e-06 -1.0222446e-23)
(-0.0092992952 -3.6289559e-06 1.3758433e-23)
(-0.0090818141 -3.6074033e-06 -3.6512932e-24)
(-0.0088657273 -3.5837663e-06 -8.8352747e-24)
(-0.0062326503 0.004601543 7.5444489e-24)
(-0.0064696279 0.0046846244 7.9805722e-24)
(-0.0066865329 0.0047295245 -1.6973309e-21)
(-0.0068739612 0.0047284323 -4.1894272e-21)
(-0.0070306861 0.0046802014 2.9114794e-21)
(-0.0071452356 0.0045775318 3.4199718e-21)
(-0.0072283355 0.0044284561 -8.0082623e-21)
(-0.0072729711 0.0042302169 2.2474121e-20)
(-0.0073284005 0.0040155512 -5.3596643e-21)
(-0.0073777003 0.003786031 -8.927399e-21)
(-0.0074123572 0.003541065 2.3593647e-22)
(-0.0074052463 0.0032704207 -7.0721208e-21)
(-0.0073804131 0.0029883077 5.594288e-21)
(-0.0072853132 0.0026776476 -9.3283094e-21)
(-0.0071855393 0.0023680408 -3.6628491e-21)
(-0.006978836 0.0020308194 -3.7663158e-21)
(-0.006799992 0.001712616 5.4997009e-21)
(-0.0064692196 0.0013733774 -8.2723125e-22)
(-0.0062701279 0.0010805139 -9.0463626e-22)
(-0.0059021439 0.00078101248 -2.1367866e-21)
(-0.0059284039 0.00054685301 -7.8946543e-23)
(-0.005827945 0.00031136306 3.9591237e-22)
(-0.0069527227 0.00012027599 -1.4243183e-23)
(-0.0090610173 4.3512201e-05 -2.4529635e-25)
(-0.010517796 3.5684159e-05 1.6833741e-25)
(-0.011965616 3.2165227e-05 2.0812985e-25)
(-0.013152057 2.8804649e-05 -1.3165885e-25)
(-0.014307002 2.608761e-05 2.3015454e-25)
(-0.015283445 2.3548865e-05 2.2951665e-25)
(-0.016221209 2.1466337e-05 -1.6133225e-25)
(-0.017035189 1.9568772e-05 -9.004276e-25)
(-0.017811821 1.7989501e-05 9.210299e-25)
(-0.018501664 1.6564644e-05 -7.7861408e-25)
(-0.019158161 1.5356863e-05 2.2064987e-25)
(-0.019752389 1.4263786e-05 3.6390575e-25)
(-0.020317238 1.3308364e-05 -2.7637627e-25)
(-0.020835286 1.2416524e-05 7.8758189e-26)
(-0.021325772 1.1589413e-05 -2.9261227e-26)
(-0.021777311 1.0821747e-05 -1.4564712e-26)
(-0.022204845 1.0124865e-05 1.7203781e-26)
(-0.022600141 9.4708828e-06 -1.2291396e-25)
(-0.022972908 8.8692346e-06 -2.2707932e-25)
(-0.023319579 8.2986869e-06 3.8873174e-26)
(-0.023645252 7.7566994e-06 -3.9694415e-25)
(-0.023947839 7.2338025e-06 1.1867502e-25)
(-0.024230489 6.7287493e-06 1.5826549e-24)
(-0.024491943 6.2379928e-06 -3.6822967e-25)
(-0.024734308 5.7604887e-06 -5.134979e-25)
(-0.024956837 5.2950654e-06 -1.5644524e-24)
(-0.025161122 4.8307433e-06 2.6621899e-24)
(-0.025345934 4.3690573e-06 -7.1292185e-25)
(-0.025512826 3.907267e-06 -8.7963049e-25)
(-0.025657804 3.5792097e-06 6.7800307e-25)
(-0.025797465 3.3009549e-06 -1.0820571e-24)
(-0.025921575 2.9278976e-06 -1.1446113e-24)
(-0.026030451 2.5207838e-06 7.5711257e-25)
(-0.026121259 2.1214279e-06 -1.4784217e-24)
(-0.026198675 1.750651e-06 8.5908109e-25)
(-0.026259074 1.4028501e-06 -1.7076638e-24)
(-0.026306867 1.1160665e-06 4.6950139e-24)
(-0.026344272 8.8562451e-07 -1.5375847e-24)
(-0.026373272 7.321542e-07 -1.7238198e-24)
(-0.026398247 6.691799e-07 2.7115683e-24)
(-0.026422114 7.0782785e-07 1.0878833e-24)
(-0.026450543 7.19252e-07 -3.477786e-24)
(-0.026476453 4.8516452e-07 3.1998252e-24)
(-0.026488069 -4.8913102e-07 -2.1210259e-24)
(-0.026433016 -1.4833999e-06 3.3099172e-24)
(-0.026360538 -1.9507557e-06 9.5558652e-26)
(-0.0262675 -2.3679159e-06 -1.8635981e-25)
(-0.026161114 -2.6926408e-06 -5.3533209e-24)
(-0.026041702 -2.9922826e-06 2.7906829e-24)
(-0.025910868 -3.2726291e-06 3.2598135e-24)
(-0.025768658 -3.541007e-06 -1.6140514e-25)
(-0.025615931 -3.7982798e-06 -2.5446995e-25)
(-0.025452788 -4.0460082e-06 -2.7946691e-25)
(-0.025279848 -4.2847685e-06 -6.3194738e-24)
(-0.025097288 -4.5145466e-06 3.4513244e-24)
(-0.024905618 -4.7359392e-06 -4.258575e-25)
(-0.024705073 -4.9479661e-06 -4.5134969e-25)
(-0.0244961 -5.1521383e-06 -3.881831e-25)
(-0.024278966 -5.3473062e-06 1.2818612e-24)
(-0.024054085 -5.5346914e-06 9.9751863e-25)
(-0.023821748 -5.712742e-06 8.7638103e-25)
(-0.023582347 -5.8829802e-06 -1.7239845e-24)
(-0.023336186 -6.0443731e-06 -2.0001003e-24)
(-0.023083635 -6.197989e-06 1.6892458e-24)
(-0.022824998 -6.3431601e-06 1.1197258e-24)
(-0.022560629 -6.4805352e-06 7.5617662e-25)
(-0.022290835 -6.6097958e-06 -2.397205e-24)
(-0.022015953 -6.7312348e-06 1.137941e-24)
(-0.021736288 -6.8451712e-06 4.7265105e-25)
(-0.021452165 -6.9512049e-06 -3.5482216e-25)
(-0.021163892 -7.0498775e-06 -2.284555e-25)
(-0.020871766 -7.1407793e-06 -4.2627457e-26)
(-0.020576084 -7.2253054e-06 3.6060867e-26)
(-0.020277121 -7.3026337e-06 -2.581445e-25)
(-0.019975165 -7.373818e-06 -4.8237729e-25)
(-0.019670475 -7.4376617e-06 5.2503122e-25)
(-0.019363328 -7.4958573e-06 -2.7637508e-25)
(-0.019053977 -7.5471118e-06 -5.6380087e-26)
(-0.018742679 -7.5923873e-06 -5.7946849e-26)
(-0.018429687 -7.6312724e-06 1.2069064e-24)
(-0.01811524 -7.6641734e-06 -4.0767922e-26)
(-0.017799588 -7.6914966e-06 -3.6863051e-25)
(-0.017482956 -7.7125402e-06 -1.2839113e-24)
(-0.017165589 -7.7286091e-06 -1.4740086e-24)
(-0.016847697 -7.7383684e-06 -9.0710816e-26)
(-0.01652951 -7.7439016e-06 5.413229e-24)
(-0.016211231 -7.7436953e-06 -3.0789779e-24)
(-0.015893066 -7.7391854e-06 -1.5454683e-24)
(-0.015575217 -7.7293346e-06 3.2254472e-24)
(-0.015257859 -7.715339e-06 -6.2726449e-24)
(-0.014941203 -7.6968729e-06 4.7035956e-26)
(-0.014625378 -7.6742227e-06 -1.680704e-24)
(-0.014310614 -7.6474619e-06 -1.3796263e-25)
(-0.013996987 -7.6170234e-06 -1.7379506e-24)
(-0.013684753 -7.5827293e-06 7.6214314e-24)
(-0.013373943 -7.5453472e-06 7.7951149e-24)
(-0.013064831 -7.5040616e-06 -1.4521747e-23)
(-0.012757408 -7.4601563e-06 -1.4347472e-25)
(-0.012451965 -7.4120446e-06 -1.4385162e-25)
(-0.0081249136 0.006000763 -5.6214957e-23)
(-0.0084326081 0.0061079489 -2.5451579e-21)
(-0.0087143775 0.0061654845 -8.5547521e-22)
(-0.0089582265 0.0061634186 4.3173308e-21)
(-0.0091625431 0.006100182 -8.5537121e-22)
(-0.0093128416 0.0059666139 -1.2839978e-20)
(-0.0094226776 0.0057728555 -1.0973274e-20)
(-0.0094835034 0.0055158407 -1.9882908e-20)
(-0.0095583925 0.005237412 -3.1417954e-21)
(-0.0096259494 0.0049396355 7.3274353e-21)
(-0.0096746637 0.0046214129 -1.2992624e-20)
(-0.0096705894 0.0042701905 1.4808931e-20)
(-0.0096434105 0.0039034757 1.1288666e-21)
(-0.0095272009 0.0035001965 9.7232032e-22)
(-0.0094046 0.0030973995 1.4908668e-20)
(-0.0091476122 0.002659672 -2.3234731e-21)
(-0.0089250765 0.0022450372 -4.2854476e-21)
(-0.0085116297 0.0018041869 -4.8230842e-22)
(-0.0082638471 0.0014212359 -1.950964e-21)
(-0.0078091791 0.0010317204 2.9386602e-22)
(-0.0078553472 0.00072438957 6.7949126e-23)
(-0.0077618799 0.00041959172 -3.0751148e-22)
(-0.0092278853 0.00017464524 -1.9815112e-23)
(-0.011932256 7.4321287e-05 -9.2271822e-26)
(-0.013820683 6.0956739e-05 -4.7397234e-25)
(-0.015687599 5.4995218e-05 5.9383799e-25)
(-0.017221999 4.91613e-05 7.4626871e-25)
(-0.018709561 4.4558672e-05 -1.6491598e-24)
(-0.019970694 4.0180042e-05 1.2843142e-24)
(-0.02117853 3.6650332e-05 -4.2873665e-25)
(-0.02222892 3.3382305e-05 7.9457577e-26)
(-0.023229025 3.0702376e-05 3.7926853e-26)
(-0.024118588 2.8252492e-05 -3.6716994e-25)
(-0.02496382 2.620032e-05 5.7210203e-25)
(-0.025729588 2.4322836e-05 -1.6986382e-26)
(-0.026456622 2.2697032e-05 -2.268813e-25)
(-0.027123801 2.1166779e-05 -1.062901e-25)
(-0.027754927 1.9757749e-05 9.960341e-26)
(-0.028336216 1.8447484e-05 3.740083e-27)
(-0.028886545 1.725765e-05 -8.1221586e-26)
(-0.029394707 1.6130043e-05 1.7018364e-25)
(-0.029873529 1.5102715e-05 3.5037979e-25)
(-0.030318752 1.4124967e-05 8.8838137e-26)
(-0.030736669 1.319841e-05 2.6555557e-26)
(-0.031124786 1.2302623e-05 -1.0653797e-24)
(-0.031487009 1.143914e-05 7.4123343e-25)
(-0.031821844 1.0598862e-05 -5.4195866e-26)
(-0.03213191 9.7824895e-06 1.044351e-24)
(-0.032416335 8.9863977e-06 -6.0060658e-26)
(-0.032677119 8.1943707e-06 -1.0595933e-25)
(-0.032912827 7.405229e-06 -2.3464541e-24)
(-0.033125048 6.5959465e-06 1.5855773e-24)
(-0.033307536 6.0319821e-06 -2.95445e-25)
(-0.033484594 5.5736252e-06 2.0466387e-24)
(-0.033641803 4.9363684e-06 -3.5087301e-24)
(-0.033779332 4.2411736e-06 -5.252372e-25)
(-0.033893759 3.5689685e-06 2.633438e-24)
(-0.033991652 2.9327746e-06 -6.5070434e-25)
(-0.034066273 2.3265479e-06 2.9345131e-24)
(-0.034124644 1.838247e-06 -9.1713511e-26)
(-0.034169638 1.4454375e-06 -5.3166878e-24)
(-0.034203817 1.183824e-06 3.360635e-24)
(-0.034232766 1.0770426e-06 -1.3180067e-24)
(-0.034260389 1.1461735e-06 8.5819851e-26)
(-0.034294039 1.179489e-06 -1.1967488e-24)
(-0.034325539 8.016794e-07 1.4561633e-24)
(-0.034339255 -8.7854297e-07 1.7590545e-24)
(-0.034265018 -2.6075973e-06 -1.2781217e-24)
(-0.034167649 -3.4076213e-06 -2.4673076e-25)
(-0.034044053 -4.1178885e-06 -2.0666344e-24)
(-0.033903209 -4.6717823e-06 1.8232132e-24)
(-0.033745609 -5.1832081e-06 2.6219839e-24)
(-0.033573263 -5.661745e-06 4.6120987e-25)
(-0.033386266 -6.1199658e-06 -4.1896433e-24)
(-0.033185698 -6.5589923e-06 -1.8212264e-24)
(-0.03297171 -6.9822176e-06 3.0052327e-25)
(-0.032745085 -7.3897221e-06 3.5825616e-24)
(-0.032506068 -7.7817959e-06 1.9049615e-24)
(-0.032255307 -8.1594242e-06 -1.9380859e-24)
(-0.031993113 -8.5215617e-06 -1.4676706e-24)
(-0.031720058 -8.8698546e-06 1.1144134e-24)
(-0.031436494 -9.202805e-06 -1.8792705e-24)
(-0.031142951 -9.5222372e-06 2.4545474e-24)
(-0.030839808 -9.8262882e-06 -1.0201181e-24)
(-0.030527571 -1.0116597e-05 -1.030879e-24)
(-0.030206631 -1.0391868e-05 1.6253715e-24)
(-0.029877468 -1.0653747e-05 3.1954824e-25)
(-0.029540473 -1.0901334e-05 3.343281e-25)
(-0.029196104 -1.1135672e-05 -1.2722071e-24)
(-0.028844758 -1.1356248e-05 1.4263372e-24)
(-0.028486869 -1.1563188e-05 -1.0358561e-24)
(-0.028122834 -1.1757134e-05 3.4949459e-25)
(-0.027753069 -1.1937822e-05 -4.4402097e-25)
(-0.027377972 -1.2106041e-05 -2.074368e-25)
(-0.026997928 -1.2261167e-05 -5.6184857e-26)
(-0.026613317 -1.2405108e-05 -5.8440739e-26)
(-0.026224498 -1.2536901e-05 -1.9767422e-25)
(-0.025831841 -1.2657893e-05 -5.4035514e-25)
(-0.025435682 -1.2766427e-05 5.1920918e-25)
(-0.025036376 -1.2864882e-05 -1.11605e-25)
(-0.024634252 -1.2952064e-05 3.9868757e-25)
(-0.024229641 -1.3029053e-05 7.5360595e-25)
(-0.023822869 -1.3095267e-05 -2.0076673e-24)
(-0.023414245 -1.3151144e-05 2.3443353e-24)
(-0.023004089 -1.319737e-05 2.4849411e-24)
(-0.022592694 -1.3232989e-05 -1.5730252e-24)
(-0.022180372 -1.3260043e-05 -3.6503018e-24)
(-0.0217674 -1.3276718e-05 4.2817357e-25)
(-0.021354069 -1.3285661e-05 -1.0445847e-25)
(-0.020940643 -1.3284935e-05 9.9965513e-25)
(-0.02052739 -1.3276666e-05 -9.4003653e-26)
(-0.02011457 -1.3259743e-05 2.644235e-24)
(-0.019702408 -1.3235358e-05 -3.963562e-24)
(-0.019291175 -1.3203289e-05 4.9992964e-24)
(-0.018881041 -1.3164253e-05 2.6111103e-24)
(-0.0184723 -1.3118408e-05 -4.0706641e-24)
(-0.018065053 -1.306603e-05 -1.7809591e-24)
(-0.017659626 -1.3007096e-05 -4.9270096e-24)
(-0.017256067 -1.2942545e-05 5.2675845e-24)
(-0.016854721 -1.2871492e-05 3.6211869e-24)
(-0.016455587 -1.2795708e-05 -2.5533325e-24)
(-0.016059031 -1.2713266e-05 -6.9301013e-24)
(-0.010069741 0.0074399061 5.0685854e-23)
(-0.010449512 0.007571321 2.8677926e-21)
(-0.010797451 0.0076413611 1.4617043e-21)
(-0.011099048 0.0076379845 1.7275334e-21)
(-0.011352274 0.0075591571 5.1038519e-21)
(-0.011539782 0.0073939701 1.7125243e-20)
(-0.011677821 0.0071545789 1.9576226e-20)
(-0.011756559 0.0068378381 8.1932493e-21)
(-0.01185273 0.0064945667 2.2807637e-20)
(-0.011940676 0.00612735 6.797844e-21)
(-0.012005561 0.0057343967 -1.5001308e-20)
(-0.012007162 0.0053011507 -3.7344926e-22)
(-0.011980116 0.0048480235 -2.9664723e-21)
(-0.011846 0.0043503883 4.5267123e-21)
(-0.011703601 0.0038522535 -7.3333126e-21)
(-0.01140104 0.0033121589 9.3354524e-21)
(-0.011138826 0.0027985559 -5.7124304e-21)
(-0.01064909 0.0022539386 2.8620363e-22)
(-0.010357056 0.0017778901 4.7294157e-21)
(-0.0098254965 0.0012962836 7.94699e-22)
(-0.009897978 0.00091281684 -8.6395855e-23)
(-0.0098295927 0.00053773863 3.6241786e-22)
(-0.01164563 0.000238897 3.119235e-22)
(-0.014941327 0.00011416129 2.0323571e-25)
(-0.017268143 9.3738131e-05 -5.3977269e-25)
(-0.019555825 8.4583288e-05 4.2436429e-25)
(-0.02144179 7.5519297e-05 -7.4421911e-25)
(-0.02326241 6.8465307e-05 4.7785004e-25)
(-0.024810349 6.1700381e-05 5.0680641e-25)
(-0.026288636 5.6293297e-05 -1.5103617e-25)
(-0.027576739 5.1246885e-05 4.5988011e-25)
(-0.028800528 4.714e-05 -7.0216245e-25)
(-0.029890591 4.3360651e-05 3.8203645e-25)
(-0.030924647 4.0213815e-05 -5.7574348e-25)
(-0.031862372 3.7318929e-05 2.9854338e-25)
(-0.032751559 3.4824015e-05 -3.4926188e-25)
(-0.033568025 3.2466072e-05 1.9765259e-25)
(-0.034339677 3.0303778e-05 3.326508e-26)
(-0.035050758 2.8294633e-05 -1.5161328e-26)
(-0.035723947 2.6462007e-05 -1.0929006e-25)
(-0.036344618 2.4712309e-05 3.3669061e-25)
(-0.036928985 2.3132535e-05 -2.5895072e-25)
(-0.03747223 2.1625799e-05 -4.9674414e-25)
(-0.037981722 2.0199529e-05 7.9328134e-25)
(-0.038454653 1.8819034e-05 -6.6162016e-25)
(-0.038895619 1.7489664e-05 1.2702724e-24)
(-0.039302947 1.6195051e-05 -9.0870905e-25)
(-0.039679727 1.4938332e-05 -1.0906283e-24)
(-0.040025007 1.3712688e-05 1.8626444e-24)
(-0.040341161 1.2495931e-05 -1.4306711e-24)
(-0.040626618 1.1280267e-05 2.4774173e-24)
(-0.040882816 1.0003208e-05 -1.6371232e-24)
(-0.04110054 9.133559e-06 -2.0167756e-24)
(-0.041313596 8.4582981e-06 3.1001851e-24)