/*--------------------------------*- C++ -*----------------------------------*\
| =========                 |                                                 |
| \\      /  F ield         | OpenFOAM: The Open Source CFD Toolbox           |
|  \\    /   O peration     | Version:  2.4.0                                 |
|   \\  /    A nd           | Web:      www.OpenFOAM.org                      |
|    \\/     M anipulation  |                                                 |
\*---------------------------------------------------------------------------*/
FoamFile
{
    version     2.0;
    format      ascii;
    class       surfaceScalarField;
    location    "10";
    object      phi;
}
// * * * * * * * * * * * * * * * * * * * * * * * * * * * * * * * * * * * * * //

dimensions      [0 3 -1 0 0 0 0];

internalField   nonuniform List<scalar> 
38499
(
0.0034824583
0.00052948452
0.0034899636
0.00048053751
0.0034971264
0.00049147675
0.0035050808
0.00056242621
0.0035149346
0.00069408581
0.0035276833
0.00088395774
0.0035442269
0.001125529
0.0035653058
0.0014093741
0.003591425
0.0017217242
0.003622689
0.0020374241
0.0036583372
0.0023020503
0.0036974911
0.0025074812
0.0037394884
0.002666681
0.0037837958
0.0027873033
0.0038300566
0.0028800434
0.0038779845
0.002948951
0.0039273847
0.0029995781
0.0039781128
0.0030349699
0.004030051
0.0030569408
0.0040830939
0.0030666744
0.0041371422
0.0030648432
0.0041921026
0.0030516483
0.0042479071
0.0030268426
0.0043046005
0.0029933774
0.0043624649
0.0029603943
0.0044219112
0.0029294896
0.0044834316
0.0029006517
0.0045475168
0.0028735248
0.0046145255
0.002847272
0.0046845204
0.0028203686
0.0047571234
0.0027905747
0.0048314468
0.0027552097
0.0049061068
0.0027111873
0.0049793191
0.0026553443
0.0050490552
0.0025847486
0.0024969259
0.0033216021
-0.00068550005
0.0033360912
-0.00071576248
0.0033507043
-0.00075135032
0.0033652385
-0.00079237676
0.0033794619
-0.00083897783
0.0033931123
-0.00089123771
0.0034059036
-0.00094908605
0.0034175253
-0.0010124703
0.0034276529
-0.0010812169
0.0034359555
-0.0011549822
0.0034421346
-0.0012319794
0.0034460798
-0.0013027239
0.00344779
-0.0013633348
0.0034473111
-0.0014132375
0.0034447473
-0.0014514935
0.0034402666
-0.0014766853
0.0034341045
-0.0014870666
0.0034265684
-0.0014803138
0.0034180553
-0.0014528855
0.0034090879
-0.0013987793
0.0034003011
-0.0013129584
0.0033924744
-0.0011856668
0.0033865425
-0.0010083338
0.0033836295
-0.00076845778
0.0033846657
-0.00047489602
0.0033895647
-0.00018351881
0.003397844
8.1424061e-05
0.0034088089
0.00030630976
0.0034216402
0.00048224545
0.0034354378
0.00060321332
0.0034492872
0.00066777233
0.0034622822
0.00067398502
0.00062077837
0.0035818844
0.00052004516
0.0035898807
0.00047254127
0.0035975457
0.0004838117
0.0036060357
0.00055393619
0.0036164746
0.00068364696
0.0036298772
0.00087055514
0.0036471629
0.0011082434
0.003669089
0.001387448
0.0036961745
0.0016946386
0.003728527
0.0020050717
0.0037653689
0.0022652085
0.0038057984
0.0024670517
0.0038491348
0.0026233447
0.0038948296
0.0027416084
0.0039425154
0.0028323576
0.0039918967
0.0028995697
0.0040427748
0.0029487
0.0040950071
0.0029827375
0.0041484841
0.0030034638
0.0042031225
0.003012036
0.0042588544
0.0030091113
0.0043156298
0.0029948729
0.0043734241
0.0029690483
0.0044323161
0.0029344854
0.0044926025
0.0029001079
0.0045546832
0.0028674089
0.0046190137
0.0028363212
0.004686043
0.0028064955
0.0047561092
0.0027772058
0.0048293072
0.0027471706
0.00490536
0.0027145219
0.0049835395
0.0026770303
0.0050626463
0.0026320805
0.0051410605
0.0025769301
0.0052168522
0.0025089569
0.0052879155
0.0024258626
0.0053520625
0.0023227477
0.0054071194
0.002192864
0.0054510639
0.0020346122
0.0054820892
0.0018477
0.00549861
0.0016327151
0.0054992793
0.001391073
0.0011251212
0.0034471097
-0.00069902838
0.0034608411
-0.00072949388
0.0034745943
-0.00076510351
0.0034881618
-0.0008059442
0.0035013075
-0.00085212358
0.0035137707
-0.00090370089
0.0035252691
-0.00096058448
0.0035355017
-0.0010227029
0.0035441552
-0.0010898704
0.0035509162
-0.0011617433
0.0035555063
-0.0012365695
0.0035578418
-0.0013050595
0.0035579459
-0.0013634388
0.0035558901
-0.0014111818
0.0035517998
-0.0014474032
0.0035458611
-0.0014707467
0.0035383238
-0.0014795292
0.0035295075
-0.0014714975
0.0035198179
-0.001443196
0.003509785
-0.0013887463
0.0035000497
-0.0013032232
0.0034913998
-0.0011770169
0.0034847803
-0.0010017143
0.0034813295
-0.00076500692
0.0034819902
-0.00047555678
0.0034866754
-0.00018820396
0.003494894
7.320543e-05
0.0035059385
0.00029526525
0.0035189728
0.00046921121
0.0035330775
0.00058910858
0.0035473159
0.00065353393
0.0035607568
0.00066054413
0.00060909009
0.0036840302
0.00051014677
0.0036925057
0.00046406583
0.0037006653
0.00047565206
0.0037096845
0.00054491703
0.0037207027
0.0006726287
0.0037347565
0.00085650138
0.003752784
0.0010902159
0.0037755599
0.001364672
0.0038036156
0.0016665829
0.0038370633
0.001971624
0.0038751058
0.002227166
0.0039168181
0.0024253393
0.0039615013
0.0025786615
0.0040085895
0.0026945202
0.0040577036
0.0027832435
0.0041085381
0.0028487352
0.0041608874
0.0028963507
0.0042146044
0.0029290205
0.0042695825
0.0029484856
0.0043257441
0.0029558744
0.0043830361
0.0029518193
0.0044414284
0.0029364806
0.004500916
0.0029095607
0.0045615885
0.0028738129
0.0046237427
0.0028379538
0.0046877577
0.0028033938
0.0047540514
0.0027700275
0.0048230277
0.0027375192
0.0048949959
0.0027052376
0.0049700646
0.0026721018
0.005048031
0.0026365556
0.0051283
0.0025967612
0.0052098488
0.0025505317
0.005291242
0.0024955368
0.0053707045
0.0024294945
0.0054462252
0.0023503419
0.0055156187
0.0022533542
0.0055766059
0.0021318769
0.0056269808
0.0019842373
0.0056647025
0.0018099783
0.005687946
0.0016094717
0.0056951391
0.0013838798
0.0011352436
0.0035765551
-0.00071179269
0.0035894266
-0.00074236532
0.0036022178
-0.00077789474
0.0036147178
-0.00081844419
0.0036266897
-0.00086409548
0.0036378751
-0.00091488631
0.0036479976
-0.00097070693
0.0036567656
-0.0010314709
0.0036638798
-0.0010969846
0.0036690438
-0.0011669072
0.0036719995
-0.0012395252
0.0036726876
-0.0013057476
0.0036711569
-0.0013619081
0.0036675016
-0.0014075265
0.0036618658
-0.0014417673
0.0036544529
-0.0014633338
0.0036455264
-0.0014706028
0.003635416
-0.0014613871
0.0036245345
-0.0014323145
0.0036134196
-0.0013776314
0.0036027187
-0.0012925222
0.0035932273
-0.0011675255
0.0035859016
-0.00099438867
0.0035818943
-0.00076099958
0.0035821617
-0.00047582417
0.0035866166
-0.00019265882
0.0035947586
6.5063341e-05
0.0036058679
0.000284156
0.0036190909
0.00045598819
0.0036334888
0.00057471072
0.0036481031
0.00063891956
0.003661978
0.00064666931
0.00059693623
0.0037889798
0.00049979658
0.0037979181
0.00045512756
0.0038065617
0.00046700843
0.0038161003
0.00053537849
0.0038276918
0.00066103714
0.0038423925
0.00084180066
0.0038611602
0.0010714483
0.0038847861
0.0013410461
0.0039138152
0.0016375538
0.0039483622
0.001937077
0.0039876104
0.0021879178
0.0040306111
0.0023823387
0.0040766454
0.0025326272
0.0041251308
0.0026460348
0.0041756749
0.0027326993
0.0042279601
0.0027964501
0.0042817714
0.0028425394
0.0043369559
0.0028738361
0.0043934006
0.0028920409
0.0044510266
0.0028982484
0.0045097823
0.0028930636
0.0045696401
0.0028766228
0.0046305957
0.0028486051
0.0046927321
0.0028116765
0.0047563322
0.0027743536
0.0048217464
0.0027379797
0.0048893484
0.0027024255
0.004959495
0.0026673726
0.0050324603
0.0026322724
0.0051083497
0.0025962124
0.0051870089
0.0025578963
0.0052679505
0.0025158196
0.0053503073
0.002468175
0.0054328284
0.0024130157
0.0055139205
0.0023484023
0.0055917254
0.002272537
0.0056641461
0.0021809335
0.0057289024
0.0020671206
0.0057837178
0.0019294219
0.0058264221
0.001767274
0.0058550357
0.001580858
0.0058678316
0.0013710839
0.001139664
0.0037099941
-0.00072369041
0.0037219031
-0.0007542743
0.0037336312
-0.00078962286
0.0037449658
-0.00082977872
0.0037556708
-0.00087480053
0.0037654915
-0.000924707
0.0037741589
-0.00097937429
0.0037813921
-0.0010387041
0.0037869062
-0.0011024988
0.0037904218
-0.0011704228
0.0037917012
-0.0012408046
0.0037907085
-0.0013047549
0.0037875162
-0.0013587158
0.0037822393
-0.0014022496
0.0037750408
-0.0014345689
0.0037661387
-0.0014544316
0.003755808
-0.0014602721
0.0037443875
-0.0014499666
0.0037322989
-0.0014202258
0.0037200854
-0.0013654179
0.0037083998
-0.0012808366
0.0036980483
-0.001157174
0.0036899961
-0.0009863365
0.0036854126
-0.00075641606
0.0036852687
-0.00047568026
0.0036894752
-0.00019686538
0.0036975248
5.7013738e-05
0.0037086832
0.00027299761
0.0037220804
0.00044259102
0.0037367567
0.00056003447
0.0037517327
0.00062394355
0.0037660264
0.00063237558
0.00058433299
0.0038968125
0.00048900918
0.0039061989
0.00044574113
0.0039153139
0.00045789349
0.0039253619
0.0005253305
0.0039375182
0.00064888078
0.0039528605
0.0008264584
0.0039723648
0.0010519439
0.0039968398
0.0013165711
0.0040268429
0.0016075508
0.0040624914
0.0019014285
0.0041029491
0.0021474601
0.0041472416
0.0023380462
0.0041946301
0.0024852387
0.0042445138
0.0025961511
0.0042964863
0.0026807268
0.0043502172
0.0027427191
0.0044054811
0.0027872755
0.0044621138
0.0028172034
0.0045199947
0.0028341601
0.0045790361
0.002839207
0.0046391785
0.0028329212
0.004700385
0.0028154163
0.0047626386
0.0027863515
0.0048260035
0.0027483116
0.0048907377
0.0027096194
0.0049571543
0.0026715631
0.0050255805
0.0026339993
0.0050963219
0.0025966312
0.005169611
0.0025589833
0.005245539
0.0025202844
0.00532398
0.0024794553
0.0054045264
0.0024352732
0.0054864426
0.0023862588
0.0055686492
0.0023308091
0.0056497424
0.0022673091
0.0057280458
0.0021942336
0.0058016112
0.0021073681
0.0058682433
0.0020004885
0.0059256924
0.0018719729
0.0059717621
0.0017212043
0.0060044074
0.0015482127
0.0060218201
0.0013536713
0.0011389709
0.0038474848
-0.00073461876
0.0038583294
-0.0007651189
0.0038688954
-0.00080018889
0.0038789692
-0.00083985253
0.0038883173
-0.00088414864
0.0038966903
-0.00093307997
0.0039038278
-0.00098651174
0.0039094604
-0.0010443367
0.0039133182
-0.0011063566
0.0039151388
-0.0011722435
0.003914703
-0.0012403688
0.0039119989
-0.0013020508
0.0039071204
-0.0013538373
0.0039002023
-0.0013953315
0.0038914239
-0.0014257905
0.0038810166
-0.0014440243
0.0038692664
-0.001448522
0.003856521
-0.0014372211
0.0038432075
-0.0014069124
0.0038298768
-0.0013520872
0.0038171881
-0.001268148
0.0038059552
-0.0011459412
0.0037971569
-0.00097753813
0.0037919768
-0.00075123603
0.003791402
-0.0004751054
0.0037953421
-0.00020080552
0.003803282
4.9073824e-05
0.0038144736
0.00026180606
0.0038280289
0.00042903566
0.0038429684
0.000545095
0.0038582903
0.00060862168
0.0038729882
0.00061767762
0.00057129614
0.0040076149
0.00047779983
0.0040174338
0.00043592215
0.0040270057
0.00044832161
0.0040375508
0.00051478537
0.0040502625
0.00063616914
0.0040662383
0.00081048254
0.0040864748
0.0010317075
0.0041117962
0.0012912496
0.0041427724
0.0015765746
0.0041795237
0.0018646772
0.0042211918
0.0021057921
0.0042667778
0.0022924601
0.0043155213
0.0024364951
0.0043668026
0.0025448698
0.0044202008
0.0026273287
0.0044753709
0.002687549
0.0045320751
0.0027305712
0.004590138
0.0027591405
0.0046494266
0.0027748715
0.0047098405
0.0027787931
0.0047713063
0.0027714554
0.0048337705
0.0027529522
0.0048971944
0.0027229276
0.0049616144
0.0026838916
0.0050272566
0.0026439773
0.0050943931
0.0026044266
0.005163301
0.0025650914
0.005234233
0.0025256992
0.0053073776
0.0024858386
0.0053828021
0.0024448599
0.0054603924
0.002401865
0.0055397996
0.0023558661
0.0056203952
0.0023056632
0.0057012504
0.0022499539
0.0057811425
0.002187417
0.0058585881
0.002116788
0.0059318211
0.0020341351
0.0059987905
0.0019335191
0.006057349
0.0018134143
0.0061053598
0.0016731935
0.0061407954
0.001512777
0.0061618341
0.0013326327
0.0011338517
0.0039890871
-0.00074447645
0.003998767
-0.00077479881
0.0040080742
-0.00080949605
0.0040167953
-0.00084857363
0.004024701
-0.00089205443
0.0040315484
-0.00093992733
0.0040370856
-0.00099204897
0.0040410568
-0.0010483078
0.0040432061
-0.0011085059
0.0040432879
-0.0011723253
0.0040411025
-0.0012381833
0.0040366585
-0.0012976069
0.004030071
-0.0013472498
0.0040214923
-0.0013867528
0.0040111169
-0.001415415
0.0039991886
-0.0014320961
0.0039860034
-0.0014353368
0.003971916
-0.0014231338
0.0039573607
-0.0013923571
0.0039428939
-0.0013376204
0.0039291811
-0.0012544351
0.0039170463
-0.0011338063
0.0039074788
-0.00096797069
0.0039016814
-0.00074543857
0.0039006548
-0.00047407883
0.0039043103
-0.00020446102
0.0039121226
4.1261502e-05
0.0039233302
0.00025059852
0.0039370275
0.00041533833
0.0039522144
0.00052990807
0.0039678662
0.0005929699
0.0039829515
0.0006025923
0.00055784216
0.0041214752
0.00046618614
0.0041317096
0.00042568779
0.0041417234
0.00043830777
0.0041527523
0.00050375648
0.0041660077
0.00062291382
0.0041826085
0.00079388171
0.0042035701
0.0010107458
0.004229734
0.0012650857
0.0042616817
0.0015446269
0.0042995347
0.0018268241
0.0043424138
0.002062913
0.0043892932
0.0022455808
0.0044393907
0.0023863976
0.0044920675
0.0024921931
0.004546886
0.0025725102
0.0046034871
0.0026309478
0.0046616192
0.0026724391
0.0047210935
0.0026996663
0.0047817625
0.0027142024
0.0048435113
0.0027170443
0.0049062477
0.002708719
0.0049698975
0.0026893023
0.0050343951
0.00265843
0.0050997442
0.0026185426
0.005166135
0.0025775864
0.0052337966
0.002536765
0.0053029557
0.0024959323
0.005373814
0.0024548409
0.005446513
0.0024131397
0.0055210924
0.0023702805
0.0055974387
0.0023255187
0.0056752434
0.0022780614
0.0057539623
0.0022269442
0.0058327959
0.0021711203
0.0059106867
0.0021095263
0.005986339
0.0020411356
0.0060581804
0.0019622937
0.0061243393
0.0018673602
0.0061828222
0.0017549314
0.0062316133
0.0016244024
0.0062687684
0.0014756219
0.006292512
0.001308889
0.0011250315
0.0041348635
-0.00075316285
0.0041432818
-0.00078321714
0.0041512365
-0.00081745068
0.0041585171
-0.00085585429
0.0041648992
-0.00089843648
0.0041701465
-0.00094517464
0.004174019
-0.00099592152
0.0041762721
-0.0010505609
0.0041766653
-0.0011088991
0.0041749697
-0.0011706297
0.0041710024
-0.001234216
0.0041647921
-0.0012913966
0.0041564738
-0.0013389315
0.0041462159
-0.0013764949
0.0041342269
-0.001403426
0.0041207616
-0.0014186308
0.0041061246
-0.0014206998
0.0040906777
-0.0014076868
0.0040748611
-0.0013765405
0.0040592379
-0.0013219972
0.0040444794
-0.0012396766
0.0040314197
-0.0011207467
0.0040210615
-0.0009576125
0.0040146237
-0.0007390008
0.0040131251
-0.00047258023
0.0040164756
-0.0002078115
0.0040241421
3.3594982e-05
0.0040353484
0.00023939224
0.0040491709
0.00040151584
0.0040645878
0.00051449115
0.0040805529
0.00057700481
0.0040960079
0.00058713727
0.00054398856
0.0042384872
0.00045418627
0.0042491189
0.00041505614
0.0042595575
0.00042786919
0.004271055
0.00049225895
0.0042848415
0.00060912731
0.0043020574
0.00077666576
0.0043237367
0.00098906656
0.0043507374
0.001238085
0.0043836527
0.0015117116
0.0044226057
0.0017878711
0.0044666946
0.0020188241
0.004514866
0.0021974094
0.0045663156
0.002334948
0.0046203835
0.0024381252
0.0046766166
0.0025162771
0.0047346392
0.0025729253
0.0047941855
0.0026128928
0.0048550524
0.0026387994
0.0049170768
0.002652178
0.0049801261
0.002653995
0.0050440891
0.002644756
0.0051088668
0.0026245246
0.0051743645
0.0025929323
0.0052405509
0.0025523561
0.00530758
0.0025105574
0.0053756386
0.0024687064
0.0054449053
0.0024266656
0.0055155313
0.0023842149
0.0055876154
0.0023410556
0.005661166
0.00229673
0.0057360644
0.0022506203
0.0058120288
0.0022020969
0.0058885824
0.0021503906
0.005965033
0.0020946697
0.0060404674
0.0020340919
0.0061137656
0.0019678374
0.0061835451
0.0018925142
0.0062481262
0.0018027791
0.0063056974
0.0016973602
0.0063544026
0.0015756973
0.0063924272
0.0014375973
0.0064180869
0.0012832294
0.0011131978
0.0042848815
-0.00076058007
0.0042919437
-0.00079027935
0.0042984564
-0.00082396341
0.004304213
-0.00086161092
0.0043089945
-0.00090321791
0.0043125738
-0.00094875399
0.0043147207
-0.00099806844
0.004315204
-0.0010510442
0.0043137977
-0.0011074927
0.0043102878
-0.0011671198
0.0043045086
-0.0012284368
0.0042965083
-0.0012833963
0.0042864387
-0.0013288619
0.0042744834
-0.0013645396
0.0042608636
-0.0013898061
0.0042458443
-0.0014036115
0.004229738
-0.0014045935
0.0042129131
-0.001390862
0.0041958154
-0.0013594427
0.0041790139
-0.0013051957
0.0041631871
-0.0012238498
0.0041491796
-0.0011067391
0.0041380065
-0.00094643939
0.0041309057
-0.0007319
0.0041289128
-0.00047058741
0.0041319378
-0.00021083643
0.00413944
2.6092711e-05
0.0041506269
0.00022820543
0.0041645563
0.00038758643
0.004180186
0.00049886137
0.0041964463
0.00056074454
0.0042122534
0.00057133023
0.00052975454
0.0043587473
0.00044182068
0.004369757
0.00040404642
0.0043806029
0.00041702325
0.0043925532
0.00048030867
0.0044068572
0.00059482328
0.0044246764
0.00075884661
0.0044470645
0.00096667845
0.0044748955
0.0012102541
0.004508774
0.0014778331
0.0045488237
0.0017478213
0.0045941197
0.0019735281
0.0046435805
0.0021479486
0.0046963784
0.0022821501
0.0047518329
0.0023826707
0.004809473
0.002458637
0.0048689073
0.002513491
0.0049298542
0.0025519459
0.0049920953
0.0025765584
0.0050554512
0.002588822
0.0051197712
0.002589675
0.0051849224
0.0025796048
0.0052507817
0.0025586653
0.0053172231
0.0025264909
0.0053841818
0.0024853974
0.005451776
0.0024429632
0.0055201519
0.0024003305
0.0055894442
0.0023573732
0.0056597593
0.0023138998
0.0057311546
0.0022696603
0.0058036101
0.0022242744
0.005876998
0.0021772324
0.0059510556
0.0021280393
0.0060253583
0.0020760879
0.006099303
0.0020207249
0.0061721024
0.0019612925
0.0062427917
0.0018971481
0.0063101667
0.0018251393
0.0063727369
0.0017402089
0.0064288812
0.0016412158
0.0064769227
0.0015276558
0.0065152021
0.0013993179
0.0065421586
0.0012562729
0.0010989444
0.0044392131
-0.00076663349
0.0044448283
-0.00079589454
0.004449814
-0.00082894913
0.0044539677
-0.00086576462
0.0044570775
-0.00090632775
0.0044589247
-0.00095060122
0.0044592904
-0.00099843407
0.0044579559
-0.0010497098
0.0044547096
-0.0011042464
0.0044493527
-0.001161763
0.0044417341
-0.0012208182
0.0044319201
-0.0012735823
0.0044200789
-0.0013170207
0.0044064085
-0.0013508691
0.0043911406
-0.0013745383
0.0043745497
-0.0013870206
0.0043569553
-0.0013869992
0.0043387327
-0.0013726393
0.0043203326
-0.0013410426
0.0043023309
-0.001287194
0.0042854121
-0.001206931
0.0042704322
-0.0010917592
0.0042584199
-0.0009344271
0.0042506323
-0.00072411244
0.0042481226
-0.00046807766
0.0042508006
-0.00021351439
0.0042581198
1.8773483e-05
0.0042692678
0.00021705746
0.0042832861
0.00037356811
0.0042991098
0.00048303764
0.0043156463
0.00054420809
0.0043317862
0.00055519031
0.00051515904
0.0044823591
0.00042910912
0.0044937274
0.00039267807
0.0045049611
0.00040578956
0.0045173475
0.00046792226
0.0045321539
0.00058001686
0.004550564
0.00074043656
0.0045736505
0.0009435919
0.0046023036
0.001181601
0.0046371392
0.0014429976
0.0046782814
0.0017066791
0.0047247806
0.0019270289
0.0047755274
0.0020972019
0.004829669
0.0022280084
0.0048865043
0.0023258354
0.004945544
0.0023995973
0.0050063794
0.0024526555
0.0050687136
0.0024896118
0.0051323115
0.0025129605
0.0051969773
0.0025241562
0.005262541
0.0025241113
0.0053288489
0.0025132969
0.0053957518
0.0024917623
0.0054630952
0.0024591476
0.0055307802
0.0024177123
0.0055988925
0.0023748509
0.0056675418
0.0023316812
0.0057368231
0.002288092
0.0058068034
0.0022439195
0.0058775041
0.0021989596
0.0059488798
0.0021528988
0.0060207937
0.0021053184
0.0060929965
0.0020558365
0.006165107
0.0020039775
0.0062365959
0.001949236
0.0063067825
0.0018911059
0.006374838
0.0018290926
0.0064397193
0.001760258
0.0065001129
0.0016798153
0.0065545828
0.0015867459
0.006601634
0.0014806046
0.0066397739
0.0013611781
0.0066675799
0.0012284668
0.0010827501
0.0045493676
-0.00053790987
0.0045538871
-0.00057019787
0.0045585221
-0.00059937138
0.0045632723
-0.0006257039
0.0045681334
-0.00064941519
0.0045730977
-0.00067064096
0.0045781558
-0.0006894429
0.0045832892
-0.00070624506
0.0045884003
-0.00072444744
0.0045933376
-0.00074607666
0.004597936
-0.00077123191
0.0046020182
-0.00079997679
0.0046053959
-0.00083232678
0.0046078728
-0.00086824156
0.0046092435
-0.00090769847
0.0046092999
-0.00095065754
0.004607833
-0.00099696717
0.0046046372
-0.001046514
0.0045995139
-0.001099123
0.0045922786
-0.0011545277
0.0045827951
-0.0012113347
0.0045711453
-0.0012619325
0.0045575132
-0.0013033886
0.0045421087
-0.0013354646
0.0045251746
-0.0013576041
0.0045069934
-0.0013688394
0.0044878923
-0.001367898
0.0044682512
-0.0013529982
0.004448527
-0.0013213184
0.0044293013
-0.0012679684
0.0044112664
-0.0011888961
0.0043952893
-0.0010757822
0.0043824129
-0.00092155068
0.0043739141
-0.00071561365
0.0043708638
-0.00046502734
0.0043731728
-0.00021582337
0.004380291
1.1655271e-05
0.0043913786
0.0002059698
0.0044054655
0.00035948122
0.0044214643
0.00046703887
0.0044382582
0.00052741416
0.004454711
0.0005387375
0.00050022257
0.004609434
0.00041607292
0.0046211392
0.00038097291
0.0046327415
0.00039418724
0.0046455449
0.00045511891
0.0046608368
0.00056472494
0.0046798233
0.00072145005
0.0047035965
0.00091981875
0.0047330629
0.0011521346
0.0047688484
0.001407212
0.0048110777
0.0016644499
0.0048587758
0.0018793308
0.0049108039
0.0020451738
0.004966285
0.0021725274
0.0050244943
0.0022676261
0.0050849257
0.0023391659
0.0051471521
0.0023904291
0.0052108602
0.0024259037
0.0052757991
0.0024480216
0.0053417553
0.0024582
0.0054085399
0.0024573266
0.0054759777
0.0024458592
0.0055438955
0.0024238445
0.0056121097
0.0023909334
0.0056804909
0.0023493311
0.0057490948
0.002306247
0.005817999
0.002262777
0.005887264
0.0022188269
0.0059569236
0.0021742599
0.0060269694
0.0021289138
0.0060973347
0.0020825334
0.0061678749
0.0020347783
0.0062383527
0.0019853587
0.006308422
0.0019339081
0.0063776172
0.0018800409
0.0064453478
0.0018233753
0.0065109035
0.0017635369
0.0065733809
0.0016977806
0.0066316277
0.0016215685
0.0066843792
0.0015339944
0.0067303142
0.0014346695
0.0067681041
0.0013233882
0.0067964701
0.0012001009
0.0010649759
0.0047244513
-0.00054159857
0.004728158
-0.00057390457
0.0047318906
-0.00060310401
0.0047356509
-0.00062946422
0.0047394372
-0.00065320147
0.0047432444
-0.00067444815
0.0047470658
-0.00069326434
0.004750886
-0.00071006525
0.0047546073
-0.00072816871
0.0047580777
-0.00074954704
0.0047611341
-0.00077428837
0.0047636012
-0.0008024439
0.0047652955
-0.00083402099
0.0047660261
-0.00086897223
0.0047655963
-0.00090726861
0.0047638064
-0.0009488677
0.0047604595
-0.00099362028
0.0047553616
-0.001041416
0.0047483273
-0.0010920887
0.0047391847
-0.0011453851
0.0047278112
-0.0011999612
0.0047143042
-0.0012484256
0.0046988612
-0.0012879456
0.0046817045
-0.0013183078
0.0046630859
-0.0013389855
0.004643296
-0.0013490496
0.0046226678
-0.0013472698
0.0046015872
-0.0013319176
0.0045805164
-0.0013002476
0.0045600435
-0.0012474955
0.0045408678
-0.0011697204
0.0045238684
-0.0010587828
0.0045101028
-0.00090778507
0.0045008679
-0.00070637877
0.0044972539
-0.00046141333
0.0044991669
-0.00021773636
0.0045060666
4.7555544e-06
0.0045170718
0.00019496459
0.0045312088
0.0003453443
0.0045473635
0.00045088412
0.0045643947
0.00051038292
0.0045811412
0.00052199109
0.00048496589
0.0047400913
0.00040273551
0.0047521111
0.0003689531
0.0047640593
0.000382239
0.0047772595
0.0004419187
0.0047930193
0.00054896513
0.0048125667
0.00070190266
0.0048370136
0.0008953719
0.0048672823
0.0011218658
0.00490401
0.0013704843
0.0049473197
0.0016211402
0.0049962117
0.0018304388
0.0050495158
0.0019918697
0.0051063304
0.0021157128
0.0051659078
0.0022080487
0.0052277231
0.0022773507
0.0052913308
0.0023268213
0.0053564011
0.0023608334
0.0054226666
0.002381756
0.0054898964
0.0023909702
0.0055578828
0.0023893402
0.0056264296
0.0023773125
0.0056953401
0.002354934
0.0057644041
0.0023218693
0.0058334637
0.0022802714
0.0059025483
0.0022371624
0.0059717078
0.0021936176
0.0060409742
0.0021495605
0.006110353
0.0021048812
0.0061798124
0.0020594544
0.006249269
0.0020130768
0.0063185739
0.0019654734
0.0063875011
0.0019164315
0.0064557353
0.0018656738
0.0065228649
0.0018129113
0.0065883774
0.0017578628
0.0066516631
0.0017002512
0.0067119414
0.0016375023
0.0067682005
0.0015653094
0.0068193304
0.0014828644
0.0068641692
0.0013898307
0.0069015421
0.0012860153
0.0069303089
0.0011713341
0.0010458705
0.0049050305
-0.00054447721
0.0049078317
-0.00057670575
0.0049105661
-0.00060583845
0.00491324
-0.00063213813
0.004915854
-0.00065581548
0.0049184072
-0.00067700128
0.0049208964
-0.00069575358
0.0049233089
-0.00071247773
0.004925549
-0.00073040888
0.0049274659
-0.00075146387
0.0049288972
-0.0007757197
0.004929672
-0.00080321874
0.0049296113
-0.00083396029
0.0049285311
-0.00086789202
0.0049262427
-0.00090498022
0.0049225562
-0.00094518111
0.0049172849
-0.00098834902
0.0049102471
-0.0010343783
0.0049012693
-0.0010831109
0.0048901925
-0.0011343083
0.0048769059
-0.0011866746
0.0048615209
-0.0012330406
0.0048442483
-0.001270673
0.004825321
-0.0012993805
0.0048049997
-0.0013186643
0.0047835821
-0.001327632
0.0047614074
-0.0013250951
0.0047388666
-0.0013093768
0.0047164268
-0.0012778078
0.0046946834
-0.001225752
0.0046743425
-0.0011493795
0.0046562954
-0.0010407356
0.0046416148
-0.00089310445
0.0046316195
-0.00069638347
0.004627419
-0.00045721292
0.0046289272
-0.00021924453
0.004635551
-1.8681997e-06
0.0046464673
0.00018404829
0.0046606367
0.00033117488
0.0046769293
0.00043459149
0.0046941797
0.00049313254
0.0047111984
0.00050497237
0.00046941046
0.0048744602
0.0003891212
0.0048867698
0.00035664351
0.0048990413
0.00036996746
0.0049126169
0.00042834314
0.0049288248
0.0005327572
0.0049489162
0.00068181124
0.004974023
0.00087026512
0.0050050825
0.0010908063
0.0050427428
0.001332824
0.0050871257
0.0015767572
0.0051372047
0.0017803597
0.0051917796
0.0019372948
0.0052499215
0.0020575709
0.0053108608
0.0021471094
0.0053740517
0.0022141598
0.0054390316
0.0022618413
0.0055054535
0.0022944116
0.0055730333
0.0023141763
0.0056415225
0.0023224809
0.0057106955
0.0023201672
0.0057803356
0.0023076724
0.0058502238
0.0022850459
0.0059201251
0.002251968
0.0059898563
0.0022105403
0.0060594234
0.0021675953
0.0061288528
0.0021241882
0.0061981537
0.0020802596
0.006267309
0.0020357258
0.0063362688
0.0019904946
0.0064049384
0.0019444072
0.0064731666
0.0018972452
0.0065407399
0.0018488582
0.0066073712
0.0017990425
0.0066726954
0.0017475871
0.0067362678
0.0016942904
0.0067975651
0.001638954
0.0068559122
0.0015791551
0.0069104192
0.0015108025
0.0069601124
0.0014331712
0.0070039706
0.0013459725
0.00704096
0.001249026
0.0070700686
0.0011422255
0.0010255894
0.0050911831
-0.00054645389
0.0050929843
-0.00057850692
0.0050946257
-0.00060747988
0.0050961166
-0.00063362907
0.0050974629
-0.00065716172
0.0050986666
-0.00067820502
0.0050997299
-0.00069681682
0.005100644
-0.0007133919
0.0051013154
-0.00073108024
0.0051015945
-0.00075174301
0.0051013221
-0.00077544723
0.0051003312
-0.00080222785
0.0050984484
-0.00083207752
0.0050954965
-0.00086494017
0.0050912955
-0.00090077916
0.0050856646
-0.00093955018
0.0050784286
-0.00098111308
0.0050694159
-0.0010253656
0.0050584653
-0.0010721603
0.0050454287
-0.0011212717
0.005030207
-0.0011714528
0.0050129248
-0.0012157584
0.0049938047
-0.0012515529
0.0049730899
-0.0012786657
0.0049510491
-0.0012966235
0.0049279864
-0.0013045693
0.0049042465
-0.0013013552
0.0048802251
-0.0012853554
0.0048563955
-0.0012539782
0.0048333583
-0.0012027148
0.0048118279
-0.0011278491
0.0047927082
-0.0010216159
0.0047770875
-0.00087748379
0.004766306
-0.00068560203
0.0047614938
-0.00045240063
0.0047625621
-0.00022031293
0.0047689206
-8.226668e-06
0.0047797157
0.00017325324
0.0047938953
0.00031699521
0.0048103029
0.00041818396
0.0048277488
0.00047568664
0.0048450166
0.0004877045
0.00045358119
0.0050126819
0.00037525615
0.0050252563
0.00034406915
0.005037827
0.00035739673
0.0050517552
0.00041441494
0.0050683911
0.00051612132
0.005089009
0.00066119338
0.0051147597
0.00084451442
0.0051465972
0.0010589688
0.0051851794
0.0012942418
0.005230627
0.0015313096
0.0052818861
0.0017291006
0.0053377243
0.0018814566
0.0053971875
0.0019981077
0.0054594806
0.0020848162
0.0055240398
0.0021496006
0.0055903835
0.0021954977
0.0056581475
0.0022266475
0.0057270308
0.002245293
0.0057967688
0.002252743
0.0058671168
0.0022498193
0.0059378396
0.0022369496
0.0060086967
0.0022141887
0.0060794311
0.0021812336
0.0061498354
0.002140136
0.0062198972
0.0020975335
0.0062896233
0.0020544622
0.0063590035
0.0020108793
0.0064280046
0.0019667248
0.0064965631
0.0019219361
0.0065645766
0.0018763937
0.0066318962
0.0018299255
0.0066983201
0.0017824343
0.0067635884
0.0017337743
0.0068273778
0.0016837977
0.0068893015
0.0016323667
0.0069489116
0.0015793439
0.0070056229
0.0015224439
0.0070586507
0.0014577747
0.0071071385
0.0013846834
0.0071501897
0.0013029212
0.0071868934
0.0012123224
0.0072163544
0.0011127645
0.001004218
0.0052829827
-0.00054743553
0.0052836898
-0.000579214
0.0052841427
-0.00060793272
0.0052843557
-0.00063384215
0.0052843395
-0.00065714551
0.0052841008
-0.00067796628
0.0052836465
-0.0006963625
0.0052829741
-0.00071271952
0.0052819921
-0.00073009827
0.0052805534
-0.00075030431
0.0052785023
-0.00077339612
0.0052756764
-0.00079940198
0.0052719083
-0.0008283094
0.0052670283
-0.00086006019
0.0052608647
-0.00089461553
0.0052532466
-0.0009319321
0.0052440083
-0.00097187473
0.0052329898
-0.0010143471
0.00522004
-0.0010592104
0.0052050221
-0.0011062538
0.0051878469
-0.0011542777
0.0051686513
-0.0011965628
0.0051476695
-0.0012305711
0.0051251525
-0.0012561487
0.0051013774
-0.0012728483
0.0050766541
-0.001279846
0.0050513321
-0.0012760331
0.0050258119
-0.0012598353
0.0050005712
-0.0012287375
0.0049762183
-0.0011783619
0.0049534747
-0.0011051055
0.0049332572
-0.0010013984
0.0049166702
-0.00086089674
0.004905077
-0.0006740088
0.0048996291
-0.00044695279
0.0049002398
-0.00022092363
0.0049063079
-1.4294715e-05
0.004916958
0.00016260314
0.004931125
0.00030282816
0.0049476258
0.0004016832
0.0049652447
0.00045806776
0.004982738
0.00047021118
0.00043750234
0.0051549119
0.00036116719
0.005167725
0.0003312561
0.0051805702
0.00034455148
0.0051948271
0.00040015808
0.0052118691
0.00049907927
0.005232995
0.00064006751