y,k
0,1e-10
0.00048240845,4.7296931e-08
0.00098049384,2.266504e-07
0.0014947656,9.3444382e-07
0.0020257498,2.7064866e-06
0.0025739895,6.2754019e-06
0.0031400454,1.2569327e-05
0.0037244966,2.2731898e-05
0.0043279408,3.8147989e-05
0.0049509953,6.0471307e-05
0.0055942973,9.1650137e-05
0.0062585048,0.00013394557
0.0069442972,0.00018993308
0.007652376,0.00026247346
0.0083834654,0.00035463397
0.0091383131,0.00046953653
0.0099176913,0.00061011253
0.010722397,0.00077875987
0.011553254,0.00097693361
0.012411111,0.0012047531
0.013296846,0.0014607527
0.014211364,0.0017418988
0.015155603,0.0020439185
0.016130526,0.0023618629
0.017137132,0.0026907344
0.018176449,0.0030260047
0.019249542,0.0033639258
0.020357507,0.0037016324
0.021501477,0.0040370921
0.022682624,0.0043689758
0.023902154,0.0046965037
0.025161316,0.0050193007
0.026461397,0.005337277
0.027803728,0.0056505352
0.02918968,0.0059593019
0.030620672,0.0062638794
0.032098167,0.0065646122
0.033623676,0.0068618644
0.03519876,0.0071560054
0.03682503,0.0074473996
0.03850415,0.0077364019
0.040237836,0.0080233533
0.042027862,0.0083085805
0.043876059,0.0085923946
0.045784317,0.0088750917
0.047754588,0.0091569539
0.049788888,0.0094382494
0.051889297,0.0097192345
0.054057963,0.010000154
0.056297104,0.010281243
0.058609012,0.010562727
0.06099605,0.010844825
0.06346066,0.011127746
0.066005363,0.011411698
0.068632762,0.011696879
0.071345544,0.011983485
0.074146484,0.01227171
0.077038447,0.012561743
0.08002439,0.012853772
0.083107369,0.013147983
0.086290535,0.013444562
0.089577146,0.013743696
0.092970562,0.014045569
0.096474255,0.01435037
0.10009181,0.014658287
0.10382692,0.014969511
0.10768342,0.015284233
0.11166524,0.01560265
0.11577645,0.015924961
0.12002127,0.016251368
0.12440404,0.016582077
0.12892923,0.016917298
0.13360148,0.017257248
0.13842557,0.017602145
0.14340642,0.017952216
0.14854914,0.01830769
0.15385898,0.018668805
0.15934138,0.019035803
0.16500194,0.019408933
0.17084645,0.019788448
0.17688089,0.020174608
0.18311143,0.020567678
0.18954445,0.020967928
0.19618653,0.021375633
0.20304445,0.021791071
0.21012524,0.022214525
0.21743614,0.02264628
0.22498461,0.023086621
0.23277839,0.023535834
0.24082545,0.023994201
0.24913402,0.024462003
0.25771259,0.024939511
0.26656994,0.025426986
0.27571513,0.025924677
0.28515751,0.026432815
0.29490674,0.026951607
0.3049728,0.02748123
0.31536597,0.028021828
0.3260969,0.0285735
0.33717655,0.02913629
0.34861625,0.029710178
0.36042772,0.030295072
0.37262303,0.030890788
0.38521464,0.031497038
0.39821546,0.032113412
0.41163876,0.032739357
0.42549828,0.033374156
0.4398082,0.034016902
0.45458315,0.034666468
0.46983824,0.035321483
0.48558908,0.035980291
0.50185179,0.036640921
0.51864298,0.037301043
0.53597984,0.037957928
0.5538801,0.038608408
0.57236207,0.039248827
0.59144465,0.039874997
0.61114736,0.040483033
0.63149036,0.041070919
0.65249445,0.041635397
0.67418111,0.04216515
0.69657252,0.042641586
0.7196916,0.043045122
0.74356198,0.043358597
0.76820808,0.043567032
0.79365511,0.043659366
0.8199291,0.043626413
0.84705692,0.043457612
0.87506632,0.043143356
0.90398595,0.042675875
0.93384539,0.042049791
0.94954502,0.041649069
0.96467517,0.041263079
0.99650683,0.040318158
1.0293729,0.039222688
1.0633071,0.037990011
1.098344,0.036639184
1.1345196,0.035192551
1.1718707,0.033675889
1.2104356,0.032120293
1.2502538,0.030556867
1.291366,0.029012805
1.3338142,0.027511566
1.3776419,0.026071775
1.4228938,0.024706151
1.4696163,0.023419109
1.5178571,0.022208393
1.566098,0.021071136
1.6128205,0.01999806
1.6580724,0.018972187
1.7019001,0.01797915
1.7443483,0.017009939
1.7854605,0.016058018
1.8252786,0.015117454
1.8638436,0.014183108
1.9011947,0.013250922
1.9373703,0.012318134
1.9724072,0.011383142
2.0063413,0.01044502
2.0163351,0.010158565
2.0392075,0.009502962
2.0710391,0.0085561509
2.1018689,0.007605627
2.1317283,0.0066641681
2.160648,0.0057643242
2.1886574,0.0049428864
2.2157852,0.0042076192
2.2420592,0.0035455711
2.2675062,0.0029624939
2.2921523,0.0024922584
2.3160227,0.0021826355
2.3391418,0.0020576256
2.3615332,0.0020988715
2.3832198,0.0022607975
2.4042239,0.002493498
2.4245669,0.0027617384
2.4442696,0.0030452255
2.4633522,0.0033335536
2.4818342,0.0036215213
2.4997344,0.003905134
2.5170713,0.0041805602
2.5338625,0.0044466136
2.5501252,0.0047038949
2.565876,0.0049505912
2.5811311,0.0051832321
2.5959061,0.0053996791
2.610216,0.0055993598
2.6240755,0.0057826368
2.6374988,0.0059502552
2.6504996,0.0061030645
2.6630913,0.0062419413
2.6752866,0.0063678014
2.687098,0.0064816308
2.6985377,0.0065845
2.7096174,0.00667755
2.7203483,0.0067619507
2.7307415,0.0068388476
2.7408075,0.0069093087
2.7505568,0.0069742856
2.7599992,0.0070345944
2.7691443,0.0070909173
2.7780017,0.0071438188
2.7865803,0.0071937685
2.7948888,0.0072411638
2.8029359,0.0072863489
2.8107297,0.0073296261
2.8182781,0.0073712631
2.825589,0.0074114958
2.8326698,0.0074505301
2.8395278,0.0074885429
2.8461698,0.0075256817
2.8526028,0.0075620663
2.8588334,0.007597788
2.8648678,0.0076329099
2.8707123,0.0076674669
2.8763729,0.0077014649
2.8818553,0.0077348801
2.8871651,0.0077676592
2.8923079,0.0077997185
2.8972887,0.0078309451
2.9021128,0.0078611974
2.9067851,0.0078903076
2.9113102,0.0079180845
2.915693,0.0079443174
2.9199378,0.0079687806
2.924049,0.0079912385
2.9280309,0.008011451
2.9318874,0.0080291786
2.9356225,0.0080441874
2.93924,0.0080562534
2.9427437,0.0080651655
2.9461371,0.0080707285
2.9494237,0.0080727644
2.9526069,0.0080711164
2.9556899,0.0080656391
2.9586758,0.0080562
2.9615678,0.0080426882
2.9643687,0.0080250023
2.9670815,0.0080030484
2.9697089,0.0079767368
2.9722536,0.0079459789
2.9747182,0.0079106831
2.9771053,0.007870751
2.9794172,0.007826074
2.9816563,0.0077765296
2.983825,0.0077219775
2.9859254,0.0076622423
2.9879597,0.007597107
2.98993,0.0075263235
2.9918382,0.0074496157
2.9936864,0.0073666742
2.9954764,0.0072771516
2.9972101,0.0071806429
2.9988893,0.0070766612
3.0005155,0.0069646461
3.0020906,0.0068439809
3.0036161,0.0067139902
3.0050936,0.0065739363
3.0065246,0.0064230216
3.0079106,0.0062603954
3.0092529,0.0060851665
3.010553,0.0058964236
3.0118121,0.005693265
3.0130317,0.0054748377
3.0142128,0.0052403846
3.0153568,0.0049892794
3.0164647,0.004720941
3.0175378,0.0044348286
3.0185772,0.0041308311
3.0195838,0.0038096665
3.0205587,0.0034730676
3.0215029,0.0031240103
3.0224174,0.0027669586
3.0233032,0.0024079723
3.024161,0.0020545722
3.0249919,0.0017152565
3.0257966,0.0013986466
3.026576,0.0011123864
3.0273308,0.00086207263
3.0280619,0.00065054571
3.02877,0.00047775166
3.0294558,0.00034116441
3.03012,0.00023655737
3.0307633,0.00015885257
3.0313863,0.0001028415
3.0319898,6.368786e-05
3.0325742,3.7216091e-05
3.0331403,2.0031037e-05
3.0336885,9.511542e-06
3.0342195,3.7003439e-06
3.0347338,1.1166847e-06
3.0352319,8.700204e-07
3.0357122,3.8077154e-09
