/*--------------------------------*- C++ -*----------------------------------*\
  =========                 |
  \\      /  F ield         | OpenFOAM: The Open Source CFD Toolbox
   \\    /   O peration     | Website:  https://openfoam.org
    \\  /    A nd           | Version:  7
     \\/     M anipulation  |
\*---------------------------------------------------------------------------*/
FoamFile
{
    version     2.0;
    format      ascii;
    class       volScalarField;
    location    "5000";
    object      omega;
}
// * * * * * * * * * * * * * * * * * * * * * * * * * * * * * * * * * * * * * //

dimensions      [0 0 -1 0 0 0 0];

internalField   nonuniform List<scalar> 
14751
(
100.009
100.012
100.003
99.995
99.9892
99.9845
99.9793
99.9765
99.9764
99.9765
99.9766
99.9845
100.001
100.015
100.025
100.033
100.038
100.042
100.047
100.046
100.041
100.035
100.028
100.016
99.9968
99.9802
99.9675
99.9601
99.9578
99.9556
99.9534
99.9513
99.9492
99.9471
99.9451
99.9473
99.9538
99.9604
99.9673
99.9805
100.002
100.02
100.035
100.043
100.046
100.048
100.05
100.052
100.054
100.056
100.058
100.058
100.056
100.054
100.052
100.05
100.048
100.046
100.043
100.035
100.021
100.002
99.9812
99.9681
99.9613
99.9547
99.9483
99.9454
99.9459
99.9464
99.9469
99.9474
99.9479
99.9484
99.9489
99.9496
99.9502
99.9509
99.9515
99.9522
99.9528
99.9534
99.9539
99.9562
99.9603
99.9645
99.9687
99.9756
99.9854
99.9982
100.013
100.019
100.018
100.017
100.016
100.015
100.012
100.008
100.003
16.9275
16.924
16.9023
16.8698
16.8277
16.7812
16.7325
16.6821
16.6315
16.5807
16.5301
16.481
16.4337
16.3871
16.3414
16.2966
16.253
16.211
16.1707
16.1315
16.0933
16.057
16.0224
15.989
15.9566
15.9264
15.8984
15.8729
15.8497
15.8282
15.8082
15.7898
15.7729
15.7573
15.7432
15.7308
15.7202
15.7108
15.7025
15.696
15.6915
15.6876
15.6841
15.6809
15.6778
15.6755
15.674
15.6733
15.6734
15.6742
15.6757
15.6778
15.6803
15.6836
15.6877
15.6926
15.6983
15.7049
15.7123
15.7199
15.7276
15.7359
15.745
15.756
15.7689
15.7831
15.7985
15.8157
15.8346
15.8551
15.8769
15.9004
15.9254
15.952
15.9803
16.0103
16.042
16.0755
16.1107
16.1476
16.1862
16.2266
16.2685
16.312
16.3572
16.4036
16.451
16.4996
16.5492
16.5995
16.65
16.6992
16.7462
16.7911
16.8331
16.8698
16.8995
16.9196
16.9285
5.79624
5.79155
5.77317
5.74637
5.71241
5.67514
5.63598
5.59536
5.55439
5.51334
5.47252
5.43239
5.39325
5.35496
5.31768
5.28155
5.24666
5.21324
5.18125
5.15063
5.12136
5.09363
5.06745
5.04269
5.0193
4.99748
4.97725
4.9586
4.94149
4.92572
4.91126
4.89805
4.88603
4.87515
4.86537
4.85676
4.84926
4.8427
4.83706
4.83236
4.82865
4.82586
4.82381
4.82237
4.82142
4.82113
4.8215
4.82249
4.82411
4.82634
4.82916
4.83255
4.83645
4.84096
4.84606
4.85176
4.85807
4.865
4.87257
4.88066
4.88923
4.89843
4.90829
4.91905
4.93078
4.94334
4.95675
4.97113
4.98655
5.00294
5.02034
5.03879
5.05832
5.07897
5.10076
5.12372
5.14788
5.17326
5.19985
5.2277
5.25671
5.28701
5.31839
5.35091
5.38444
5.41879
5.45384
5.48957
5.52576
5.5622
5.5985
5.63435
5.66893
5.7017
5.73226
5.75843
5.77994
5.7944
5.80057
2.96285
2.95683
2.9406
2.91941
2.89277
2.86375
2.83394
2.80329
2.77249
2.74163
2.7111
2.68114
2.65195
2.62358
2.59615
2.56979
2.54449
2.52043
2.49756
2.47589
2.4554
2.43613
2.4181
2.40127
2.38559
2.37111
2.3578
2.34564
2.33459
2.32457
2.31555
2.30748
2.30033
2.29404
2.28859
2.28397
2.28013
2.27697
2.27452
2.27292
2.27204
2.2718
2.27213
2.27298
2.2743
2.27613
2.27845
2.28124
2.28449
2.28819
2.29231
2.29685
2.30177
2.30709
2.31281
2.31893
2.32543
2.33233
2.33961
2.34727
2.35526
2.36366
2.37246
2.38171
2.39147
2.4017
2.41242
2.42365
2.43545
2.4478
2.46072
2.47424
2.48837
2.50314
2.51856
2.53466
2.55146
2.56896
2.58709
2.60599
2.62554
2.64587
2.66681
2.6884
2.71054
2.73319
2.75624
2.77957
2.80301
2.8264
2.84952
2.87218
2.89389
2.91424
2.93279
2.94835
2.96064
2.96809
2.96944
1.90123
1.89427
1.87942
1.86128
1.839
1.81502
1.79065
1.76575
1.74108
1.717
1.69344
1.67054
1.64835
1.627
1.60657
1.58714
1.56868
1.55131
1.53497
1.51968
1.5054
1.49215
1.4799
1.46864
1.45832
1.44894
1.44047
1.43288
1.42613
1.42017
1.41497
1.4105
1.40673
1.4036
1.40107
1.39918
1.39791
1.39727
1.39717
1.39759
1.39851
1.39988
1.40167
1.40385
1.40639
1.40931
1.4126
1.41626
1.42027
1.42456
1.42914
1.43399
1.43909
1.44443
1.45001
1.45583
1.46187
1.46814
1.47463
1.48134
1.48825
1.49539
1.50275
1.51036
1.51825
1.52641
1.53484
1.54357
1.55262
1.56199
1.5717
1.58176
1.59217
1.60297
1.6141
1.62563
1.63761
1.65009
1.66309
1.67654
1.69037
1.70464
1.71925
1.73419
1.74939
1.76478
1.78029
1.79583
1.81127
1.82649
1.84134
1.85572
1.86928
1.88173
1.89277
1.90164
1.90819
1.91103
1.90904
1.36153
1.35419
1.34049
1.32434
1.30499
1.28445
1.26385
1.24308
1.22278
1.20312
1.18417
1.16602
1.14888
1.13262
1.11727
1.10283
1.08927
1.07667
1.06497
1.05419
1.04427
1.03521
1.02698
1.01956
1.01291
1.007
1.00181
0.997298
0.993441
0.99018
0.987491
0.985361
0.983768
0.982711
0.982169
0.982085
0.982452
0.983237
0.984399
0.985919
0.987781
0.989954
0.992417
0.995155
0.998146
1.0014
1.00491
1.00866
1.01264
1.01679
1.02111
1.02558
1.0302
1.03495
1.03983
1.04484
1.04997
1.05522
1.06058
1.06607
1.07166
1.07737
1.08321
1.0892
1.09534
1.10165
1.10812
1.11477
1.12163
1.1287
1.13598
1.14347
1.15115
1.15912
1.16747
1.17615
1.18513
1.19443
1.20404
1.21394
1.22409
1.23452
1.24513
1.25593
1.26684
1.27781
1.28878
1.29967
1.3104
1.32087
1.33096
1.34062
1.3496
1.35766
1.3646
1.36981
1.37315
1.3734
1.36974
1.0277
1.02067
1.00846
0.994319
0.977728
0.960331
0.943113
0.925982
0.909454
0.893644
0.87862
0.864427
0.851155
0.838754
0.827216
0.816562
0.806761
0.797795
0.7896
0.782165
0.775446
0.769426
0.764077
0.75937
0.755272
0.751758
0.748798
0.746368
0.744442
0.743008
0.742033
0.74148
0.741327
0.741556
0.742143
0.743057
0.744284
0.745796
0.747567
0.749579
0.751819
0.754265
0.756902
0.759716
0.762689
0.765817
0.769089
0.772482
0.77598
0.77957
0.783244
0.786991
0.7908
0.794669
0.798592
0.802566
0.80659
0.810661
0.814783
0.818956
0.823177
0.827459
0.831811
0.83624
0.840763
0.845383
0.850111
0.854957
0.859937
0.86505
0.870291
0.875676
0.881349
0.88727
0.893434
0.899824
0.906436
0.913278
0.920334
0.927606
0.935049
0.942693
0.950467
0.958362
0.966325
0.974309
0.982264
0.990149
0.997875
1.00539
1.01258
1.01943
1.02575
1.0313
1.03596
1.03915
1.04075
1.03977
1.03565
0.799493
0.793384
0.783058
0.771199
0.757485
0.743226
0.72928
0.715563
0.702485
0.690128
0.678535
0.667719
0.657725
0.648516
0.640071
0.632393
0.625419
0.619152
0.613522
0.608525
0.60411
0.600257
0.596938
0.594129
0.591796
0.589916
0.588463
0.587414
0.586746
0.586438
0.586462
0.586795
0.587415
0.588302
0.589435
0.590793
0.592362
0.594119
0.596046
0.598127
0.600348
0.602694
0.60515
0.607704
0.610338
0.613044
0.615808
0.618612
0.621453
0.624324
0.627215
0.630122
0.633035
0.635953
0.638873
0.641794
0.644717
0.64764
0.650569
0.653508
0.656456
0.659425
0.662426
0.665464
0.668555
0.671704
0.674922
0.678217
0.681598
0.68506
0.688634
0.692444
0.696436
0.700605
0.704949
0.709467
0.71416
0.719033
0.724075
0.729295
0.734654
0.740181
0.74582
0.751567
0.757381
0.763229
0.769072
0.774881
0.780585
0.786145
0.791479
0.796565
0.801246
0.805321
0.808674
0.810805
0.811637
0.810379
0.806585
0.636214
0.631344
0.62305
0.613528
0.602608
0.591317
0.580371
0.569696
0.559616
0.550191
0.541445
0.533373
0.525999
0.51929
0.51322
0.507785
0.502924
0.498644
0.49488
0.491621
0.488822
0.486463
0.484517
0.482963
0.481774
0.480928
0.480402
0.480176
0.480229
0.480541
0.481089
0.481855
0.482819
0.483964
0.485273
0.486729
0.488319
0.490025
0.491832
0.493725
0.495694
0.497722
0.4998
0.501914
0.504051
0.5062
0.508352
0.510499
0.512637
0.514761
0.516864
0.518942
0.52099
0.523007
0.524994
0.526949
0.528876
0.530776
0.532655
0.534517
0.536367
0.538216
0.540071
0.541943
0.543842
0.545777
0.547756
0.549787
0.551877
0.554033
0.55638
0.558873
0.5615
0.564268
0.56718
0.570237
0.573445
0.57681
0.580327
0.584005
0.587814
0.591781
0.595864
0.60006
0.604342
0.608685
0.613062
0.617452
0.621801
0.626077
0.630213
0.634193
0.637885
0.641113
0.64378
0.645468
0.646135
0.645132
0.642071
0.516898
0.513316
0.50696
0.499592
0.491157
0.482456
0.474068
0.465926
0.45829
0.451207
0.444689
0.438727
0.433333
0.42848
0.424144
0.420321
0.416959
0.41407
0.411604
0.409537
0.407825
0.40645
0.40539
0.404626
0.404136
0.403901
0.4039
0.404118
0.404534
0.405131
0.405891
0.406799
0.407837
0.408992
0.410248
0.411592
0.413012
0.414493
0.416023
0.417589
0.41918
0.420785
0.422394
0.423997
0.425582
0.427142
0.428673
0.430168
0.431626
0.43304
0.434408
0.435728
0.436996
0.438215
0.439384
0.440505
0.441583
0.442621
0.443626
0.444603
0.445558
0.446502
0.447443
0.44839
0.449355
0.450344
0.451366
0.452428
0.453533
0.454795
0.456177
0.457673
0.459285
0.461024
0.462894
0.464901
0.467048
0.469346
0.471791
0.474393
0.477131
0.480029
0.483053
0.486205
0.489461
0.492805
0.496218
0.499688
0.503169
0.506639
0.510041
0.513361
0.516492
0.519283
0.521658
0.523272
0.524094
0.523587
0.521407
0.428533
0.426114
0.421441
0.415892
0.4095
0.402864
0.396478
0.3903
0.384537
0.37923
0.374383
0.369987
0.366048
0.362545
0.359458
0.356782
0.354477
0.352551
0.350964
0.349681
0.348669
0.347911
0.347389
0.347089
0.346989
0.347074
0.347328
0.347735
0.348279
0.348944
0.349716
0.350582
0.351527
0.352539
0.353605
0.354714
0.355856
0.357018
0.35819
0.359361
0.360523
0.361665
0.362781
0.363863
0.364903
0.365897
0.366841
0.367732
0.368569
0.369349
0.370069
0.370731
0.371333
0.371877
0.372367
0.372806
0.373198
0.373549
0.373865
0.374154
0.374423
0.37468
0.374936
0.375198
0.375479
0.375784
0.376124
0.376502
0.376981
0.377591
0.378301
0.379118
0.380049
0.381104
0.38229
0.383611
0.385073
0.386685
0.388445
0.390365
0.392427
0.394653
0.397016
0.399518
0.402142
0.404873
0.407699
0.41061
0.41357
0.416559
0.419535
0.422484
0.425321
0.427921
0.430222
0.431944
0.433054
0.433103
0.431783
0.362178
0.360677
0.357295
0.353145
0.348314
0.343255
0.338389
0.333694
0.329337
0.325353
0.321742
0.318498
0.315623
0.313101
0.310913
0.309056
0.307497
0.306235
0.305216
0.304425
0.303837
0.303438
0.303213
0.303149
0.303228
0.303439
0.303766
0.304196
0.304715
0.305311
0.30597
0.306682
0.307435
0.308218
0.309021
0.309834
0.310649
0.311455
0.312243
0.313007
0.313738
0.314429
0.315076
0.315672
0.316215
0.3167
0.317126
0.317491
0.317795
0.318036
0.318217
0.318337
0.318398
0.318405
0.31836
0.318269
0.318137
0.317971
0.317777
0.317565
0.317341
0.317115
0.316896
0.316693
0.316516
0.316374
0.316277
0.316239
0.316339
0.316544
0.31685
0.317264
0.317795
0.318454
0.319246
0.320177
0.32125
0.322474
0.323847
0.32538
0.327059
0.328903
0.33089
0.333022
0.335286
0.337669
0.34016
0.342749
0.345408
0.348122
0.350855
0.353598
0.356283
0.358809
0.361124
0.363003
0.36441
0.364965
0.364387
0.311381
0.310532
0.308102
0.304999
0.301346
0.297498
0.293792
0.290223
0.286925
0.283929
0.281235
0.278836
0.276735
0.274917
0.273369
0.272086
0.271024
0.270177
0.269498
0.268991
0.268635
0.268415
0.268321
0.26834
0.268459
0.268666
0.268949
0.269297
0.269697
0.270141
0.270616
0.271115
0.271626
0.272141
0.272653
0.273152
0.273632
0.274086
0.274505
0.274885
0.275219
0.275504
0.275735
0.27591
0.276026
0.276081
0.276076
0.27601
0.275884
0.275699
0.275457
0.27516
0.274813
0.274419
0.273984
0.273513
0.273014
0.272492
0.271956
0.271414
0.270874
0.270346
0.26984
0.269362
0.268924
0.268533
0.268197
0.267977
0.267873
0.267871
0.267975
0.268194
0.268535
0.269005
0.269611
0.270357
0.271247
0.272287
0.273475
0.274818
0.276305
0.277951
0.279739
0.281671
0.283736
0.285928
0.288229
0.290632
0.293113
0.295661
0.298247
0.300865
0.303458
0.305945
0.308282
0.310279
0.311899
0.312823
0.312795
0.271648
0.271266
0.269563
0.267264
0.264514
0.26159
0.258765
0.256044
0.253539
0.251275
0.249254
0.24747
0.245924
0.244608
0.243492
0.242567
0.241795
0.241173
0.240677
0.240308
0.240046
0.239882
0.239805
0.239805
0.239869
0.23999
0.240155
0.240357
0.240584
0.24083
0.241085
0.241342
0.241592
0.241829
0.242047
0.242238
0.242398
0.242521
0.242602
0.242636
0.242622
0.242554
0.242432
0.242255
0.242021
0.241731
0.241386
0.240987
0.240536
0.240036
0.239489
0.2389
0.238272
0.237613
0.236927
0.236221
0.235502
0.234777
0.234053
0.233338
0.232641
0.231971
0.231338
0.230748
0.230213
0.22974
0.229342
0.229075
0.228912
0.228851
0.228901
0.229069
0.22936
0.229779
0.230331
0.231018
0.231845
0.232816
0.233933
0.235195
0.236593
0.238139
0.239818
0.241633
0.243573
0.245629
0.247794
0.25006
0.252408
0.25483
0.257301
0.259818
0.262335
0.264782
0.267118
0.269183
0.270937
0.272107
0.272467
0.239967
0.239931
0.23878
0.237094
0.235031
0.232807
0.230645
0.228559
0.22664
0.224914
0.22338
0.222036
0.220869
0.219864
0.218998
0.218259
0.217629
0.21711
0.216685
0.21635
0.216089
0.215894
0.215756
0.215667
0.215616
0.215597
0.2156
0.215619
0.215646
0.215673
0.215694
0.215704
0.215695
0.215664
0.215604
0.215511
0.215382
0.215213
0.215001
0.214744
0.214439
0.214086
0.213684
0.213232
0.212733
0.212187
0.211596
0.210964
0.210293
0.209587
0.208849
0.208084
0.207297
0.206494
0.205682
0.204866
0.204054
0.203252
0.202468
0.201708
0.200981
0.200294
0.199656
0.199074
0.198556
0.198109
0.197776
0.197552
0.197426
0.197403
0.197488
0.197688
0.198009
0.198451
0.199016
0.199706
0.200524
0.201472
0.202551
0.203763
0.205102
0.206576
0.208175
0.2099
0.211741
0.213689
0.215743
0.217896
0.220134
0.222448
0.224822
0.227249
0.229693
0.232093
0.234411
0.236513
0.238351
0.239695
0.240342
0.214247
0.214462
0.213725
0.212502
0.210955
0.209255
0.207587
0.205968
0.20448
0.203139
0.201936
0.200864
0.199911
0.199062
0.19831
0.197649
0.197067
0.196567
0.196134
0.195761
0.195438
0.195157
0.194909
0.19469
0.194491
0.194306
0.194128
0.193953
0.193773
0.193583
0.19338
0.193158
0.192913
0.192641
0.19234
0.192005
0.191636
0.191229
0.190784
0.1903
0.189776
0.189213
0.188611
0.187971
0.187295
0.186586
0.185846
0.185078
0.184288
0.183478
0.182653
0.181817
0.180976
0.180134
0.179298
0.178474
0.177668
0.176886
0.176135
0.175421
0.174751
0.17413
0.173566
0.173064
0.172632
0.172281
0.172048
0.171911
0.171866
0.171915
0.172065
0.172319
0.172679
0.17315
0.173734
0.174432
0.175245
0.176177
0.177226
0.178397
0.179687
0.181102
0.182636
0.184288
0.18605
0.187918
0.189887
0.191952
0.194102
0.196329
0.19862
0.200969
0.203344
0.205694
0.207982
0.210093
0.211978
0.213439
0.214292
0.192991
0.193384
0.192953
0.192074
0.190909
0.189594
0.188289
0.187005
0.185803
0.184698
0.183678
0.182738
0.181878
0.181089
0.180369
0.179716
0.179118
0.178579
0.178085
0.177631
0.177207
0.176807
0.176426
0.176059
0.1757
0.175345
0.174989
0.174627
0.174255
0.173869
0.173468
0.173047
0.172604
0.172137
0.171643
0.171122
0.170572
0.169993
0.169383
0.168745
0.168077
0.167383
0.166662
0.165918
0.165152
0.164367
0.163565
0.162751
0.161928
0.161101
0.160273
0.15945
0.158634
0.157833
0.157049
0.156287
0.155553
0.154851
0.154188
0.153569
0.153
0.152486
0.152029
0.151635
0.151308
0.151072
0.150932
0.150873
0.150898
0.151011
0.151214
0.15151
0.151902
0.152394
0.152989
0.153691
0.1545
0.155418
0.156447
0.15759
0.158845
0.160216
0.1617
0.163294
0.164995
0.166798
0.168699
0.170693
0.172769
0.174921
0.177138
0.179414
0.181722
0.184017
0.186265
0.188364
0.190267
0.1918
0.192796
0.175115
0.175629
0.175415
0.174787
0.173898
0.172855
0.171784
0.170701
0.169654
0.168659
0.167715
0.166823
0.165984
0.165196
0.164456
0.163764
0.16311
0.162496
0.161912
0.161352
0.16081
0.160282
0.159762
0.159249
0.158739
0.158227
0.157712
0.157189
0.156656
0.156111
0.155552
0.154978
0.154387
0.153779
0.153152
0.152507
0.151842
0.151158
0.150456
0.149735
0.148998
0.148247
0.147483
0.146708
0.145926
0.145138
0.144347
0.143557
0.142769
0.141988
0.141216
0.140459
0.139719
0.139002
0.138312
0.137649
0.137018
0.136421
0.135863
0.135349
0.134883
0.134468
0.134109
0.13381
0.133574
0.133431
0.133361
0.133363
0.133442
0.133602
0.133846
0.134176
0.134596
0.13511
0.135719
0.136427
0.137235
0.138145
0.139158
0.140278
0.141503
0.142837
0.144277
0.145823
0.147471
0.149218
0.151059
0.15299
0.155001
0.157086
0.159235
0.161443
0.163685
0.165922
0.168121
0.170193
0.172091
0.173662
0.174751
0.159824
0.160413
0.160345
0.159879
0.159158
0.158272
0.15732
0.156327
0.155343
0.154385
0.153457
0.152562
0.151702
0.150879
0.150088
0.14933
0.148597
0.147893
0.147207
0.146539
0.145882
0.145233
0.144589
0.143949
0.14331
0.142671
0.14203
0.141385
0.140735
0.140078
0.139413
0.13874
0.138058
0.137367
0.136668
0.13596
0.135244
0.13452
0.133789
0.133053
0.132311
0.131566
0.130817
0.130069
0.129323
0.128582
0.127849
0.127127
0.126415
0.125714
0.125028
0.12436
0.123712
0.123088
0.122489
0.12192
0.121382
0.120879
0.120414
0.11999
0.11961
0.119278
0.118999
0.118777
0.118619
0.118542
0.118531
0.118587
0.118715
0.118917
0.119198
0.119559
0.120004
0.120535
0.121156
0.121868
0.122673
0.123574
0.124571
0.125668
0.126863
0.128161
0.129559
0.131059
0.132656
0.134349
0.136134
0.138006
0.139957
0.14198
0.144067
0.14621
0.148388
0.150566
0.15271
0.154744
0.156619
0.1582
0.159343
0.146498
0.147115
0.14712
0.146732
0.146087
0.145264
0.144357
0.143394
0.142421
0.141459
0.140513
0.139588
0.138685
0.137807
0.136952
0.13612
0.135306
0.134513
0.133736
0.132972
0.132218
0.131473
0.130733
0.129999
0.129269
0.128543
0.12782
0.1271
0.126381
0.125663
0.124946
0.12423
0.123514
0.122797
0.12208
0.121364
0.120648
0.119935
0.119224
0.118519
0.117817
0.117118
0.116424
0.115735
0.115053
0.11438
0.113718
0.113067
0.112429
0.111807
0.111201
0.110614
0.110048
0.109504
0.108984
0.108493
0.108034
0.10761
0.107223
0.106876
0.106571
0.106313
0.106105
0.105948
0.105864
0.105843
0.105882
0.105985
0.106154
0.106392
0.106703
0.107088
0.107551
0.108095
0.108721
0.109432
0.11023
0.111117
0.112094
0.113164
0.114327
0.115586
0.116941
0.118392
0.119937
0.121575
0.123303
0.125116
0.127007
0.128972
0.131
0.133083
0.1352
0.137318
0.139405
0.141393
0.143232
0.144799
0.145958
0.134631
0.135236
0.135255
0.134886
0.134261
0.133455
0.132554
0.131588
0.130603
0.129618
0.128639
0.127673
0.126722
0.125788
0.124872
0.123975
0.123095
0.122233
0.121386
0.120555
0.119736
0.118928
0.118132
0.117346
0.11657
0.115803
0.115044
0.114294
0.113553
0.11282
0.112097
0.111384
0.110677
0.109977
0.109283
0.108595
0.107913
0.107238
0.10657
0.105909
0.105255
0.104609
0.10397
0.103341
0.102721
0.102112
0.101514
0.100927
0.100354
0.0997991
0.0992622
0.0987454
0.0982502
0.0977785
0.0973324
0.0969154
0.0965296
0.0961772
0.0958607
0.0955826
0.0953456
0.0951528
0.0950069
0.0949106
0.0948809
0.0949062
0.0949875
0.0951274
0.0953287
0.0955941
0.0959263
0.096328
0.0968016
0.0973498
0.0979748
0.0986784
0.0994627
0.10033
0.101282
0.10232
0.103446
0.104663
0.10597
0.107368
0.108857
0.110435
0.1121
0.113849
0.115678
0.117583
0.119555
0.121575
0.123626
0.125678
0.1277
0.129629
0.131415
0.132945
0.134086
0.123862
0.124431
0.124433
0.124054
0.123424
0.122612
0.121701
0.120721
0.119715
0.118703
0.117694
0.116692
0.115703
0.114728
0.11377
0.112832
0.111912
0.111013
0.110132
0.109269
0.108421
0.10759
0.106775
0.105977
0.105195
0.104426
0.103671
0.102928
0.102198
0.10148
0.100775
0.100082
0.0993988
0.0987263
0.098064
0.0974117
0.0967689
0.0961353
0.0955102
0.0948926
0.094284
0.0936857
0.0930983
0.0925223
0.0919582
0.0914066
0.0908681
0.0903439
0.0898363
0.0893466
0.088876
0.0884259
0.0879979
0.0875937
0.0872154
0.0868651
0.0865448
0.0862565
0.0860023
0.0857844
0.0856053
0.0854676
0.085374
0.0853281
0.0853404
0.0854024
0.0855161
0.0856839
0.0859083
0.0861918
0.086537
0.0869465
0.0874225
0.0879675
0.0885837
0.089273
0.0900372
0.0908789
0.0917994
0.092801
0.0938844
0.0950533
0.0963074
0.0976482
0.0990753
0.100587
0.102183
0.10386
0.105614
0.107445
0.109344
0.11129
0.113266
0.115242
0.117189
0.119047
0.120766
0.12224
0.123339
0.113967
0.114491
0.114464
0.114067
0.113423
0.112601
0.111678
0.110687
0.109668
0.10864
0.107613
0.106595
0.105589
0.1046
0.103629
0.102679
0.101749
0.100846
0.0999653
0.0991037
0.09826
0.0974342
0.096626
0.0958356
0.095062
0.0943049
0.093564
0.0928391
0.0921293
0.0914342
0.0907527
0.090083
0.0894266
0.0887837
0.0881539
0.0875367
0.0869316
0.0863382
0.085756
0.0851849
0.0846256
0.0840788
0.0835446
0.0830235
0.0825158
0.082022
0.081543
0.0810797
0.0806336
0.0802056
0.0797969
0.0794086
0.0790421
0.078699
0.0783809
0.0780895
0.0778264
0.0775934
0.0773923
0.0772251
0.0770937
0.0770002
0.0769463
0.0769435
0.0769875
0.0770769
0.0772137
0.0774003
0.0776389
0.077932
0.0782819
0.0786911
0.0791617
0.0796962
0.0802966
0.0809649
0.0817029
0.082513
0.0833967
0.0843561
0.0853923
0.0865087
0.0877054
0.0889839
0.0903439
0.0917845
0.0933037
0.0948992
0.0965661
0.0983004
0.100099
0.101954
0.103845
0.105739
0.107604
0.109385
0.111029
0.112437
0.113481
0.104824
0.105301
0.105245
0.104831
0.104178
0.103354
0.10243
0.10144
0.100423
0.0993996
0.0983785
0.0973665
0.0963696
0.0953937
0.0944362
0.0934992
0.0925825
0.0916893
0.0908173
0.089966
0.0891341
0.0883211
0.0875261
0.086748
0.0859876
0.0852463
0.0845237
0.0838196
0.0831331
0.0824636
0.0818103
0.0811727
0.0805511
0.0799453
0.0793546
0.0787786
0.0782166
0.0776682
0.0771332
0.0766113
0.076103
0.0756084
0.0751276
0.0746607
0.0742081
0.0737703
0.0733479
0.0729416
0.0725524
0.0721811
0.0718286
0.0714959
0.0711842
0.0708947
0.0706289
0.070388
0.0701736
0.0699871
0.0698302
0.0697045
0.0696118
0.0695539
0.0695326
0.0695587
0.0696254
0.0697336
0.0698851
0.0700822
0.0703271
0.070622
0.0709691
0.0713709
0.0718293
0.0723468
0.0729253
0.0735668
0.0742732
0.0750466
0.0758887
0.0768015
0.0777863
0.0788461
0.0799816
0.0811941
0.0824834
0.0838484
0.0852869
0.0867958
0.0883693
0.090001
0.0916858
0.0934317
0.0952214
0.0970221
0.0987983
0.100494
0.102058
0.103394
0.104378
0.0963707
0.0968065
0.0967285
0.0963061
0.0956546
0.094841
0.0939324
0.0929612
0.0919651
0.0909658
0.0899713
0.0889846
0.0880104
0.0870522
0.0861108
0.0851892
0.0842867
0.0834049
0.0825431
0.0817037
0.0808855
0.0800881
0.0793109
0.0785539
0.0778175
0.0771023
0.0764079
0.0757339
0.0750795
0.0744441
0.0738272
0.0732284
0.0726473
0.0720834
0.0715362
0.0710048
0.0704889
0.0699878
0.0695013
0.0690292
0.0685715
0.068128
0.0676988
0.0672839
0.0668836
0.0664982
0.0661282
0.0657739
0.0654362
0.0651157
0.0648131
0.0645293
0.0642651
0.0640218
0.0638005
0.0636021
0.0634281
0.0632798
0.0631585
0.0630659
0.0630036
0.0629731
0.0629763
0.0630217
0.0631033
0.0632226
0.0633816
0.0635822
0.0638264
0.0641166
0.0644547
0.064843
0.0652836
0.0657787
0.0663302
0.0669402
0.0676104
0.0683431
0.0691397
0.0700024
0.0709325
0.071933
0.0730046
0.0741487
0.0753651
0.0766527
0.0780093
0.0794313
0.080913
0.0824487
0.0840306
0.0856624
0.0873347
0.089027
0.0907013
0.0923042
0.0937812
0.0950411
0.0959638
0.0885853
0.0889856
0.088895
0.088475
0.0878367
0.087046
0.0861671
0.0852282
0.0842634
0.0832915
0.0823207
0.081356
0.080401
0.079457
0.0785291
0.0776214
0.0767342
0.0758701
0.0750288
0.0742117
0.0734176
0.0726463
0.0718973
0.0711709
0.0704672
0.0697862
0.0691276
0.0684908
0.0678749
0.0672797
0.0667043
0.0661483
0.0656111
0.065092
0.0645902
0.0641051
0.0636361
0.0631826
0.0627442
0.0623205
0.0619115
0.0615167
0.0611362
0.0607699
0.0604179
0.0600803
0.0597576
0.05945
0.059158
0.0588822
0.0586231
0.0583814
0.058158
0.0579537
0.0577694
0.0576062
0.0574652
0.0573475
0.0572544
0.0571873
0.0571477
0.0571373
0.0571582
0.0572156
0.0573057
0.0574301
0.0575904
0.0577887
0.0580269
0.0583069
0.058631
0.0590011
0.0594193
0.0598878
0.0604084
0.0609832
0.0616139
0.0623026
0.063051
0.0638611
0.0647343
0.0656735
0.0666796
0.067754
0.0688968
0.0701069
0.0713821
0.0727191
0.0741128
0.0755585
0.0770506
0.0785839
0.0801488
0.0817259
0.0832875
0.0847879
0.086172
0.0873523
0.0882135
0.0814535
0.0818229
0.0817273
0.0813167
0.0806981
0.0799325
0.0790783
0.0781658
0.0772259
0.0762749
0.0753217
0.0743747
0.0734379
0.0725146
0.0716091
0.070725
0.0698633
0.0690267
0.0682152
0.0674293
0.0666682
0.0659315
0.0652189
0.0645304
0.0638658
0.0632251
0.0626076
0.0620129
0.06144
0.0608885
0.0603576
0.0598466
0.0593547
0.0588813
0.0584254
0.0579864
0.0575636
0.0571563
0.0567641
0.0563865
0.0560232
0.0556739
0.0553383
0.0550164
0.0547082
0.0544137
0.0541331
0.0538666
0.0536147
0.0533776
0.0531559
0.0529502
0.0527611
0.0525893
0.0524357
0.0523011
0.0521866
0.0520931
0.0520217
0.0519737
0.0519503
0.0519527
0.0519872
0.0520513
0.0521447
0.0522692
0.0524262
0.0526177
0.0528455
0.0531115
0.0534177
0.0537661
0.0541586
0.0545973
0.0550842
0.0556211
0.0562099
0.0568526
0.0575508
0.0583066
0.0591215
0.0599982
0.0609381
0.0619424
0.0630115
0.0641445
0.0653396
0.0665937
0.0679024
0.0692619
0.0706673
0.0721131
0.0735877
0.0750663
0.0765268
0.0779258
0.0792146
0.0803145
0.0811156
0.0749384
0.0752748
0.0751695
0.0747638
0.0741587
0.0734115
0.072575
0.0716825
0.0707635
0.0698348
0.0689062
0.0679848
0.0670751
0.0661811
0.0653065
0.0644549
0.0636274
0.0628267
0.0620527
0.0613055
0.0605844
0.0598889
0.0592185
0.0585731
0.0579523
0.0573559
0.0567831
0.0562334
0.0557059
0.0551998
0.0547145
0.054249
0.0538026
0.0533743
0.0529634
0.052569
0.0521905
0.0518272
0.0514784
0.0511437
0.0508227
0.050515
0.0502203
0.0499384
0.0496693
0.049413
0.0491695
0.048939
0.0487218
0.048518
0.0483282
0.0481529
0.0479925
0.0478478
0.0477193
0.0476079
0.0475145
0.0474399
0.0473853
0.0473516
0.0473401
0.0473519
0.0473929
0.0474594
0.0475523
0.0476732
0.0478235
0.0480049
0.0482193
0.0484684
0.048754
0.0490782
0.0494428
0.0498498
0.0503011
0.0507985
0.0513439
0.0519392
0.0525861
0.0532866
0.0540425
0.0548563
0.0557296
0.0566638
0.0576594
0.0587161
0.0598321
0.0610048
0.0622304
0.0635054
0.0648255
0.0661849
0.0675724
0.0689664
0.0703413
0.0716532
0.0728584
0.0738859
0.0746313
0.0689563
0.0692581
0.0691389
0.0687341
0.0681385
0.0674083
0.066594
0.0657271
0.0648356
0.0639366
0.0630397
0.0621517
0.0612773
0.0604203
0.0595843
0.0587726
0.0579865
0.0572284
0.056498
0.0557952
0.0551193
0.0544696
0.0538455
0.0532466
0.0526725
0.0521226
0.0515964
0.051093
0.0506115
0.0501512
0.0497112
0.0492905
0.0488883
0.0485037
0.0481358
0.0477839
0.0474471
0.0471247
0.0468161
0.0465208
0.0462384
0.0459683
0.0457103
0.0454642
0.0452298
0.0450071
0.0447961
0.0445968
0.0444094
0.0442343
0.0440716
0.0439219
0.0437855
0.0436631
0.0435553
0.0434626
0.043386
0.0433263
0.0432843
0.0432612
0.0432579
0.0432757
0.0433191
0.0433851
0.0434747
0.0435894
0.0437305
0.0438997
0.0440986
0.044329
0.0445925
0.0448911
0.0452264
0.0456006
0.0460153
0.0464724
0.0469737
0.0475211
0.0481163
0.0487613
0.049458
0.0502089
0.0510156
0.0518799
0.0528026
0.0537834
0.054821
0.0559131
0.0570563
0.0582476
0.0594827
0.0607563
0.0620576
0.0633666
0.0646575
0.0658907
0.0670222
0.067984
0.0686774
0.0634416
0.0637117
0.0635828
0.0631829
0.0626016
0.0618939
0.0611072
0.0602718
0.0594144
0.0585519
0.0576937
0.0568462
0.0560139
0.0552006
0.0544095
0.0536437
0.0529045
0.052194
0.0515116
0.0508572
0.0502299
0.0496289
0.0490534
0.0485028
0.0479766
0.0474743
0.0469949
0.0465378
0.0461019
0.0456864
0.0452903
0.0449129
0.044553
0.0442098
0.0438824
0.04357
0.0432718
0.0429872
0.0427154
0.0424559
0.0422082
0.0419719
0.0417467
0.0415323
0.0413285
0.0411352
0.0409525
0.0407803
0.0406187
0.040468
0.0403285
0.0402004
0.0400842
0.0399803
0.0398894
0.039812
0.0397488
0.0397007
0.0396683
0.0396528
0.039655
0.0396761
0.0397195
0.0397829
0.0398673
0.0399741
0.0401046
0.0402603
0.0404426
0.0406533
0.0408939
0.0411662
0.041472
0.0418129
0.0421909
0.0426076
0.0430649
0.0435645
0.0441083
0.0446981
0.0453359
0.0460243
0.0467651
0.0475601
0.0484102
0.0493157
0.0502753
0.0512873
0.0523484
0.053456
0.0546062
0.0557938
0.0570089
0.0582325
0.0594397
0.0605934
0.0616507
0.0625475
0.0631905
0.0583706
0.0586122
0.0584777
0.0580869
0.057525
0.056845
0.0560913
0.0552932
0.0544762
0.0536563
0.0528427
0.0520415
0.0512569
0.0504925
0.0497511
0.0490356
0.0483473
0.0476876
0.0470562
0.0464525
0.0458756
0.0453246
0.0447985
0.0442967
0.0438185
0.0433632
0.04293
0.042518
0.0421262
0.0417537
0.0413997
0.0410631
0.0407429
0.0404384
0.0401487
0.0398728
0.0396101
0.0393598
0.0391214
0.0388941
0.0386777
0.0384715
0.0382754
0.038089
0.0379121
0.0377447
0.0375866
0.0374379
0.0372986
0.0371689
0.0370491
0.0369394
0.0368402
0.0367519
0.036675
0.0366101
0.0365577
0.0365186
0.0364936
0.0364835
0.0364892
0.0365119
0.0365537
0.0366132
0.0366913
0.0367893
0.0369084
0.03705
0.0372154
0.0374061
0.0376238
0.0378699
0.0381462
0.0384544
0.0387961
0.0391731
0.039587
0.0400397
0.0405329
0.0410684
0.0416484
0.0422752
0.042951
0.0436774
0.0444559
0.0452867
0.046169
0.0471012
0.0480805
0.0491045
0.0501697
0.0512712
0.0523999
0.0535378
0.0546612
0.0557352
0.0567185
0.0575512
0.0581455
0.0537246
0.0539407
0.0538043
0.0534269
0.0528891
0.0522416
0.0515259
0.0507703
0.0499987
0.0492264
0.0484623
0.0477119
0.0469792
0.0462673
0.045579
0.0449166
0.0442813
0.0436744
0.0430952
0.0425431
0.0420171
0.0415161
0.0410391
0.0405853
0.040154
0.0397444
0.0393556
0.0389869
0.038637
0.0383053
0.0379907
0.0376923
0.0374091
0.0371403
0.0368851
0.0366426
0.0364121
0.036193
0.0359846
0.0357863
0.0355977
0.0354184
0.0352481
0.0350864
0.0349332
0.0347884
0.0346518
0.0345235
0.0344036
0.0342921
0.0341893
0.0340953
0.0340106
0.0339355
0.0338703
0.0338157
0.0337722
0.0337403
0.0337209
0.0337146
0.0337223
0.0337456
0.0337849
0.0338397
0.033911
0.0339999
0.0341074
0.0342348
0.0343834
0.0345546
0.0347498
0.0349704
0.0352181
0.0354944
0.0358009
0.0361393
0.0365112
0.0369183
0.0373623
0.0378451
0.0383687
0.0389355
0.0395477
0.0402071
0.0409152
0.0416725
0.0424784
0.0433316
0.0442297
0.0451706
0.0461511
0.0471667
0.0482091
0.0492614
0.0503012
0.0512958
0.0522059
0.0529757
0.0535228
0.049487
0.0496806
0.0495457
0.0491853
0.0486757
0.0480648
0.0473913
0.0466823
0.0459602
0.0452393
0.0445281
0.0438315
0.0431533
0.0424961
0.0418625
0.0412545
0.0406733
0.0401194
0.0395925
0.0390916
0.0386157
0.0381637
0.0377344
0.037327
0.0369407
0.0365747
0.0362282
0.0359002
0.0355897
0.035296
0.035018
0.0347549
0.0345057
0.0342696
0.0340459
0.0338337
0.0336324
0.0334412
0.0332598
0.0330874
0.0329236
0.0327682
0.0326207
0.0324809
0.0323486
0.0322236
0.0321059
0.0319955
0.0318924
0.0317967
0.0317086
0.0316283
0.031556
0.0314921
0.031437
0.0313911
0.0313549
0.031329
0.0313139
0.0313103
0.031319
0.0313421
0.0313785
0.0314284
0.0314927
0.0315724
0.0316686
0.0317823
0.0319146