/*--------------------------------*- C++ -*----------------------------------*\
  =========                 |
  \\      /  F ield         | OpenFOAM: The Open Source CFD Toolbox
   \\    /   O peration     | Website:  https://openfoam.org
    \\  /    A nd           | Version:  7
     \\/     M anipulation  |
\*---------------------------------------------------------------------------*/
FoamFile
{
    version     2.0;
    format      ascii;
    class       volScalarField;
    location    "5000";
    object      p;
}
// * * * * * * * * * * * * * * * * * * * * * * * * * * * * * * * * * * * * * //

dimensions      [0 2 -2 0 0 0 0];

internalField   nonuniform List<scalar> 
14751
(
-1.01644e-12
2.34432e-06
5.27397e-06
8.02999e-06
1.09802e-05
1.39508e-05
1.69156e-05
1.98842e-05
2.28005e-05
2.56508e-05
2.84045e-05
3.10491e-05
3.35582e-05
3.59186e-05
3.81214e-05
4.0147e-05
4.20017e-05
4.3667e-05
4.51518e-05
4.64458e-05
4.75564e-05
4.84823e-05
4.92291e-05
4.97979e-05
5.01966e-05
5.04295e-05
5.05026e-05
5.0423e-05
5.01964e-05
4.98296e-05
4.93295e-05
4.87026e-05
4.79557e-05
4.70952e-05
4.61274e-05
4.50598e-05
4.3897e-05
4.26461e-05
4.13124e-05
3.99035e-05
3.84235e-05
3.68787e-05
3.52752e-05
3.36169e-05
3.19109e-05
3.01613e-05
2.83729e-05
2.65518e-05
2.47034e-05
2.28339e-05
2.09483e-05
1.90508e-05
1.71479e-05
1.52439e-05
1.33441e-05
1.14538e-05
9.57729e-06
7.72021e-06
5.88736e-06
4.0818e-06
2.3107e-06
5.76507e-07
-1.11576e-06
-2.76049e-06
-4.35589e-06
-5.89676e-06
-7.38027e-06
-8.80116e-06
-1.01579e-05
-1.14464e-05
-1.26637e-05
-1.38074e-05
-1.48737e-05
-1.58606e-05
-1.67652e-05
-1.75848e-05
-1.8316e-05
-1.89574e-05
-1.95019e-05
-1.99529e-05
-2.02961e-05
-2.05386e-05
-2.06663e-05
-2.06797e-05
-2.05705e-05
-2.03333e-05
-1.99593e-05
-1.94445e-05
-1.87784e-05
-1.79591e-05
-1.69671e-05
-1.58098e-05
-1.44778e-05
-1.29485e-05
-1.12694e-05
-9.37264e-06
-7.29905e-06
-5.05875e-06
-2.9206e-06
-4.93838e-10
2.34397e-06
5.27345e-06
8.0294e-06
1.09795e-05
1.395e-05
1.69148e-05
1.98833e-05
2.27995e-05
2.56498e-05
2.84034e-05
3.1048e-05
3.35571e-05
3.59174e-05
3.81202e-05
4.01458e-05
4.20004e-05
4.36657e-05
4.51504e-05
4.64443e-05
4.75549e-05
4.84808e-05
4.92277e-05
4.97964e-05
5.01952e-05
5.04281e-05
5.05012e-05
5.04218e-05
5.01952e-05
4.98285e-05
4.93285e-05
4.87016e-05
4.79549e-05
4.70944e-05
4.61267e-05
4.50592e-05
4.38965e-05
4.26457e-05
4.1312e-05
3.99033e-05
3.84233e-05
3.68786e-05
3.52753e-05
3.3617e-05
3.19111e-05
3.01616e-05
2.83733e-05
2.65523e-05
2.4704e-05
2.28345e-05
2.09489e-05
1.90515e-05
1.71487e-05
1.52448e-05
1.33451e-05
1.14548e-05
9.57833e-06
7.7213e-06
5.88851e-06
4.08299e-06
2.31194e-06
5.77784e-07
-1.11445e-06
-2.75915e-06
-4.35451e-06
-5.89536e-06
-7.37884e-06
-8.79972e-06
-1.01564e-05
-1.1445e-05
-1.26622e-05
-1.38059e-05
-1.48723e-05
-1.58591e-05
-1.67637e-05
-1.75834e-05
-1.83146e-05
-1.89559e-05
-1.95005e-05
-1.99515e-05
-2.02947e-05
-2.05373e-05
-2.06651e-05
-2.06785e-05
-2.05693e-05
-2.03323e-05
-1.99583e-05
-1.94435e-05
-1.87775e-05
-1.79584e-05
-1.69664e-05
-1.58092e-05
-1.44773e-05
-1.29481e-05
-1.12691e-05
-9.37251e-06
-7.29907e-06
-5.05875e-06
-2.92068e-06
-7.34384e-10
2.34292e-06
5.27235e-06
8.02785e-06
1.09777e-05
1.39483e-05
1.69131e-05
1.98819e-05
2.27983e-05
2.56487e-05
2.84024e-05
3.10471e-05
3.35563e-05
3.59167e-05
3.81195e-05
4.01451e-05
4.19997e-05
4.36648e-05
4.51494e-05
4.64432e-05
4.75537e-05
4.84795e-05
4.92263e-05
4.9795e-05
5.01937e-05
5.04266e-05
5.04998e-05
5.04204e-05
5.01939e-05
4.98273e-05
4.93274e-05
4.87006e-05
4.79539e-05
4.70936e-05
4.6126e-05
4.50586e-05
4.3896e-05
4.26454e-05
4.13118e-05
3.99031e-05
3.84233e-05
3.68787e-05
3.52755e-05
3.36173e-05
3.19115e-05
3.01621e-05
2.83739e-05
2.65529e-05
2.47047e-05
2.28354e-05
2.09499e-05
1.90526e-05
1.71499e-05
1.5246e-05
1.33464e-05
1.14562e-05
9.57979e-06
7.72283e-06
5.8901e-06
4.08464e-06
2.31364e-06
5.79539e-07
-1.11265e-06
-2.7573e-06
-4.35263e-06
-5.89345e-06
-7.3769e-06
-8.79776e-06
-1.01544e-05
-1.1443e-05
-1.26602e-05
-1.38039e-05
-1.48703e-05
-1.58571e-05
-1.67618e-05
-1.75815e-05
-1.83127e-05
-1.89541e-05
-1.94987e-05
-1.99498e-05
-2.02931e-05
-2.05358e-05
-2.06637e-05
-2.06773e-05
-2.05682e-05
-2.03313e-05
-1.99575e-05
-1.94428e-05
-1.87769e-05
-1.79578e-05
-1.69659e-05
-1.58086e-05
-1.44768e-05
-1.29476e-05
-1.12687e-05
-9.37228e-06
-7.29908e-06
-5.05855e-06
-2.92178e-06
-9.78466e-10
2.34109e-06
5.27048e-06
8.02539e-06
1.09749e-05
1.39457e-05
1.69107e-05
1.98799e-05
2.27967e-05
2.56474e-05
2.84014e-05
3.10464e-05
3.35558e-05
3.59163e-05
3.81193e-05
4.01449e-05
4.19994e-05
4.36644e-05
4.51488e-05
4.64424e-05
4.75527e-05
4.84783e-05
4.92249e-05
4.97936e-05
5.01923e-05
5.04252e-05
5.04984e-05
5.0419e-05
5.01925e-05
4.9826e-05
4.93262e-05
4.86995e-05
4.7953e-05
4.70928e-05
4.61253e-05
4.50581e-05
4.38956e-05
4.26451e-05
4.13117e-05
3.99032e-05
3.84235e-05
3.68791e-05
3.5276e-05
3.3618e-05
3.19123e-05
3.0163e-05
2.8375e-05
2.65542e-05
2.47061e-05
2.28369e-05
2.09515e-05
1.90543e-05
1.71517e-05
1.5248e-05
1.33484e-05
1.14583e-05
9.58201e-06
7.72513e-06
5.89247e-06
4.08709e-06
2.31614e-06
5.82102e-07
-1.11004e-06
-2.75465e-06
-4.34995e-06
-5.89074e-06
-7.37418e-06
-8.79502e-06
-1.01517e-05
-1.14402e-05
-1.26575e-05
-1.38012e-05
-1.48676e-05
-1.58545e-05
-1.67592e-05
-1.75789e-05
-1.83102e-05
-1.89518e-05
-1.94965e-05
-1.99477e-05
-2.02912e-05
-2.05341e-05
-2.06622e-05
-2.0676e-05
-2.05672e-05
-2.03305e-05
-1.99568e-05
-1.94423e-05
-1.87765e-05
-1.79575e-05
-1.69657e-05
-1.58085e-05
-1.44767e-05
-1.29473e-05
-1.12686e-05
-9.37243e-06
-7.29947e-06
-5.05829e-06
-2.92442e-06
-1.87203e-09
2.33808e-06
5.26721e-06
8.02143e-06
1.09704e-05
1.39414e-05
1.69067e-05
1.98763e-05
2.27936e-05
2.56448e-05
2.83991e-05
3.10444e-05
3.35541e-05
3.59149e-05
3.81181e-05
4.01437e-05
4.19982e-05
4.3663e-05
4.51472e-05
4.64406e-05
4.75507e-05
4.84761e-05
4.92227e-05
4.97913e-05
5.01899e-05
5.04229e-05
5.04962e-05
5.04169e-05
5.01906e-05
4.98242e-05
4.93246e-05
4.86981e-05
4.79518e-05
4.70919e-05
4.61246e-05
4.50576e-05
4.38955e-05
4.26452e-05
4.13121e-05
3.99038e-05
3.84244e-05
3.68802e-05
3.52774e-05
3.36196e-05
3.19142e-05
3.01651e-05
2.83773e-05
2.65567e-05
2.47088e-05
2.28398e-05
2.09546e-05
1.90575e-05
1.71551e-05
1.52515e-05
1.33521e-05
1.14621e-05
9.58591e-06
7.72913e-06
5.89656e-06
4.09126e-06
2.32037e-06
5.86396e-07
-1.1057e-06
-2.75029e-06
-4.34556e-06
-5.88633e-06
-7.36977e-06
-8.79063e-06
-1.01473e-05
-1.14359e-05
-1.26532e-05
-1.3797e-05
-1.48634e-05
-1.58504e-05
-1.67552e-05
-1.75751e-05
-1.83065e-05
-1.89482e-05
-1.9493e-05
-1.99445e-05
-2.02882e-05
-2.05314e-05
-2.06599e-05
-2.0674e-05
-2.05655e-05
-2.03291e-05
-1.99557e-05
-1.94415e-05
-1.8776e-05
-1.79573e-05
-1.69657e-05
-1.58085e-05
-1.44769e-05
-1.29474e-05
-1.12691e-05
-9.37322e-06
-7.30051e-06
-5.05814e-06
-2.92904e-06
-4.18957e-09
2.33319e-06
5.26166e-06
8.01508e-06
1.09631e-05
1.39344e-05
1.68997e-05
1.98699e-05
2.27877e-05
2.56394e-05
2.83942e-05
3.10399e-05
3.35501e-05
3.59113e-05
3.81148e-05
4.01405e-05
4.19951e-05
4.36598e-05
4.51439e-05
4.64371e-05
4.7547e-05
4.84724e-05
4.92189e-05
4.97876e-05
5.01864e-05
5.04195e-05
5.04931e-05
5.0414e-05
5.0188e-05
4.9822e-05
4.93227e-05
4.86966e-05
4.79507e-05
4.70911e-05
4.61243e-05
4.50577e-05
4.3896e-05
4.26462e-05
4.13134e-05
3.99056e-05
3.84265e-05
3.68827e-05
3.52802e-05
3.36228e-05
3.19177e-05
3.01689e-05
2.83814e-05
2.65613e-05
2.47137e-05
2.28449e-05
2.096e-05
1.90632e-05
1.71609e-05
1.52575e-05
1.33582e-05
1.14683e-05
9.59228e-06
7.7356e-06
5.90308e-06
4.09787e-06
2.327e-06
5.93054e-07
-1.09902e-06
-2.74365e-06
-4.33893e-06
-5.87974e-06
-7.36322e-06
-8.78416e-06
-1.01409e-05
-1.14296e-05
-1.2647e-05
-1.37909e-05
-1.48575e-05
-1.58446e-05
-1.67495e-05
-1.75696e-05
-1.83012e-05
-1.89431e-05
-1.94882e-05
-1.99401e-05
-2.02841e-05
-2.05277e-05
-2.06566e-05
-2.06713e-05
-2.05632e-05
-2.03274e-05
-1.99545e-05
-1.94407e-05
-1.87756e-05
-1.79574e-05
-1.69661e-05
-1.58092e-05
-1.4478e-05
-1.29483e-05
-1.12707e-05
-9.37517e-06
-7.30269e-06
-5.05865e-06
-2.93616e-06
-8.80156e-09
2.32564e-06
5.25303e-06
8.00567e-06
1.09524e-05
1.39239e-05
1.68895e-05
1.98601e-05
2.27787e-05
2.5631e-05
2.83865e-05
3.10328e-05
3.35436e-05
3.59053e-05
3.81094e-05
4.01354e-05
4.19903e-05
4.36551e-05
4.51392e-05
4.64325e-05
4.75424e-05
4.84679e-05
4.92146e-05
4.97835e-05
5.01826e-05
5.04161e-05
5.04901e-05
5.04115e-05
5.01859e-05
4.98204e-05
4.93217e-05
4.86961e-05
4.79508e-05
4.70918e-05
4.61255e-05
4.50595e-05
4.38983e-05
4.2649e-05
4.13168e-05
3.99094e-05
3.84308e-05
3.68874e-05
3.52853e-05
3.36283e-05
3.19235e-05
3.01751e-05
2.83881e-05
2.65683e-05
2.47211e-05
2.28526e-05
2.09679e-05
1.90713e-05
1.71691e-05
1.52659e-05
1.33667e-05
1.14769e-05
9.60092e-06
7.74429e-06
5.91177e-06
4.10657e-06
2.33564e-06
6.01666e-07
-1.09047e-06
-2.7352e-06
-4.33057e-06
-5.8715e-06
-7.3551e-06
-8.7762e-06
-1.01331e-05
-1.1422e-05
-1.26395e-05
-1.37836e-05
-1.48504e-05
-1.58377e-05
-1.67429e-05
-1.75632e-05
-1.8295e-05
-1.89373e-05
-1.94827e-05
-1.99351e-05
-2.02795e-05
-2.05238e-05
-2.06533e-05
-2.06686e-05
-2.05612e-05
-2.03261e-05
-1.99538e-05
-1.94407e-05
-1.87761e-05
-1.79586e-05
-1.69678e-05
-1.58112e-05
-1.44805e-05
-1.29509e-05
-1.1274e-05
-9.37909e-06
-7.30695e-06
-5.06095e-06
-2.9464e-06
-1.64429e-08
2.31492e-06
5.24079e-06
7.99279e-06
1.09382e-05
1.39098e-05
1.68758e-05
1.98471e-05
2.27666e-05
2.56199e-05
2.83763e-05
3.10234e-05
3.35353e-05
3.58979e-05
3.81028e-05
4.01295e-05
4.19849e-05
4.36501e-05
4.51344e-05
4.64279e-05
4.75382e-05
4.8464e-05
4.9211e-05
4.97804e-05
5.018e-05
5.0414e-05
5.04886e-05
5.04106e-05
5.01857e-05
4.98208e-05
4.93227e-05
4.86978e-05
4.79531e-05
4.70948e-05
4.61292e-05
4.50637e-05
4.39031e-05
4.26544e-05
4.13227e-05
3.99158e-05
3.84377e-05
3.68948e-05
3.52931e-05
3.36365e-05
3.1932e-05
3.0184e-05
2.83972e-05
2.65777e-05
2.47308e-05
2.28624e-05
2.09779e-05
1.90814e-05
1.71793e-05
1.52761e-05
1.3377e-05
1.14872e-05
9.61118e-06
7.7545e-06
5.92188e-06
4.11663e-06
2.34555e-06
6.11453e-07
-1.08081e-06
-2.72574e-06
-4.32129e-06
-5.86241e-06
-7.34619e-06
-8.76754e-06
-1.01247e-05
-1.14138e-05
-1.26315e-05
-1.37758e-05
-1.48429e-05
-1.58304e-05
-1.67359e-05
-1.75566e-05
-1.82888e-05
-1.89315e-05
-1.94773e-05
-1.99303e-05
-2.02753e-05
-2.05203e-05
-2.06505e-05
-2.06666e-05
-2.05601e-05
-2.03258e-05
-1.99543e-05
-1.9442e-05
-1.87781e-05
-1.79615e-05
-1.69714e-05
-1.58153e-05
-1.44852e-05
-1.29558e-05
-1.12797e-05
-9.38569e-06
-7.31408e-06
-5.06595e-06
-2.96013e-06
-2.75884e-08
2.3008e-06
5.22473e-06
7.97637e-06
1.09205e-05
1.38922e-05
1.68589e-05
1.98311e-05
2.2752e-05
2.56064e-05
2.83642e-05
3.10126e-05
3.35258e-05
3.58897e-05
3.8096e-05
4.01236e-05
4.198e-05
4.36457e-05
4.51305e-05
4.64246e-05
4.75353e-05
4.84616e-05
4.92092e-05
4.97793e-05
5.01795e-05
5.04142e-05
5.04895e-05
5.04122e-05
5.0188e-05
4.98239e-05
4.93265e-05
4.87023e-05
4.79583e-05
4.71006e-05
4.61357e-05
4.50708e-05
4.39108e-05
4.26626e-05
4.13314e-05
3.9925e-05
3.84473e-05
3.69048e-05
3.53034e-05
3.36471e-05
3.19429e-05
3.01951e-05
2.84085e-05
2.65892e-05
2.47424e-05
2.28742e-05
2.09896e-05
1.90932e-05
1.71911e-05
1.52878e-05
1.33886e-05
1.14987e-05
9.62257e-06
7.76574e-06
5.9329e-06
4.12748e-06
2.35615e-06
6.21834e-07
-1.07065e-06
-2.71588e-06
-4.31169e-06
-5.85309e-06
-7.33714e-06
-8.75881e-06
-1.01162e-05
-1.14056e-05
-1.26236e-05
-1.37683e-05
-1.48356e-05
-1.58235e-05
-1.67294e-05
-1.75504e-05
-1.82831e-05
-1.89263e-05
-1.94726e-05
-1.99263e-05
-2.02721e-05
-2.05178e-05
-2.0649e-05
-2.0666e-05
-2.05605e-05
-2.03273e-05
-1.99566e-05
-1.94454e-05
-1.87823e-05
-1.79667e-05
-1.69776e-05
-1.5822e-05
-1.44927e-05
-1.29636e-05
-1.12884e-05
-9.3955e-06
-7.32448e-06
-5.07407e-06
-2.97746e-06
-4.25493e-08
2.28322e-06
5.2048e-06
7.95648e-06
1.08994e-05
1.38714e-05
1.68392e-05
1.98128e-05
2.27353e-05
2.55915e-05
2.8351e-05
3.10011e-05
3.35162e-05
3.58819e-05
3.80898e-05
4.01188e-05
4.19763e-05
4.3643e-05
4.51286e-05
4.64234e-05
4.75348e-05
4.84619e-05
4.92102e-05
4.9781e-05
5.0182e-05
5.04174e-05
5.04936e-05
5.0417e-05
5.01936e-05
4.98302e-05
4.93335e-05
4.871e-05
4.79667e-05
4.71096e-05
4.61452e-05
4.50809e-05
4.39214e-05
4.26736e-05
4.1343e-05
3.99368e-05
3.84595e-05
3.69173e-05
3.53161e-05
3.366e-05
3.19559e-05
3.02082e-05
2.84217e-05
2.66025e-05
2.47557e-05
2.28874e-05
2.10028e-05
1.91062e-05
1.7204e-05
1.53006e-05
1.34011e-05
1.1511e-05
9.63458e-06
7.77747e-06
5.94429e-06
4.1386e-06
2.3669e-06
6.32246e-07
-1.06057e-06
-2.7062e-06
-4.30236e-06
-5.84413e-06
-7.32853e-06
-8.75059e-06
-1.01083e-05
-1.13981e-05
-1.26165e-05
-1.37615e-05
-1.48292e-05
-1.58176e-05
-1.67238e-05
-1.75454e-05
-1.82786e-05
-1.89224e-05
-1.94694e-05
-1.99238e-05
-2.02704e-05
-2.05171e-05
-2.06493e-05
-2.06674e-05
-2.05631e-05
-2.03309e-05
-1.99614e-05
-1.94513e-05
-1.87893e-05
-1.79748e-05
-1.69867e-05
-1.58318e-05
-1.45034e-05
-1.29748e-05
-1.13005e-05
-9.40888e-06
-7.33844e-06
-5.08568e-06
-2.99841e-06
-6.1279e-08
2.26245e-06
5.18143e-06
7.93369e-06
1.08758e-05
1.38486e-05
1.68178e-05
1.97931e-05
2.27178e-05
2.5576e-05
2.83378e-05
3.099e-05
3.35073e-05
3.58751e-05
3.8085e-05
4.01157e-05
4.19747e-05
4.36426e-05
4.51294e-05
4.64253e-05
4.75375e-05
4.84654e-05
4.92145e-05
4.97862e-05
5.01881e-05
5.04243e-05
5.05013e-05
5.04254e-05
5.02028e-05
4.98401e-05
4.93441e-05
4.87212e-05
4.79784e-05
4.71218e-05
4.6158e-05
4.50941e-05
4.39349e-05
4.26876e-05
4.13572e-05
3.99513e-05
3.84741e-05
3.69321e-05
3.53309e-05
3.3675e-05
3.19709e-05
3.02231e-05
2.84365e-05
2.66172e-05
2.47703e-05
2.29018e-05
2.1017e-05
1.91202e-05
1.72177e-05
1.53139e-05
1.34141e-05
1.15236e-05
9.64677e-06
7.78924e-06
5.95559e-06
4.14951e-06
2.37731e-06
6.42213e-07
-1.05104e-06
-2.69717e-06
-4.29377e-06
-5.836e-06
-7.32083e-06
-8.74337e-06
-1.01015e-05
-1.13917e-05
-1.26105e-05
-1.3756e-05
-1.48243e-05
-1.58131e-05
-1.67199e-05
-1.7542e-05
-1.82758e-05
-1.89203e-05
-1.9468e-05
-1.99233e-05
-2.02708e-05
-2.05185e-05
-2.06519e-05
-2.06713e-05
-2.05682e-05
-2.03373e-05
-1.9969e-05
-1.94601e-05
-1.87993e-05
-1.7986e-05
-1.69991e-05
-1.5845e-05
-1.45175e-05
-1.29895e-05
-1.13162e-05
-9.42596e-06
-7.35608e-06
-5.10091e-06
-3.02279e-06
-8.31932e-08
2.23954e-06
5.15576e-06
7.90903e-06
1.08505e-05
1.38241e-05
1.67953e-05
1.97726e-05
2.26998e-05
2.55605e-05
2.83249e-05
3.09797e-05
3.34996e-05
3.58698e-05
3.8082e-05
4.01147e-05
4.19755e-05
4.36453e-05
4.51337e-05
4.64308e-05
4.7544e-05
4.84728e-05
4.92228e-05
4.97954e-05
5.01982e-05
5.04351e-05
5.05129e-05
5.04377e-05
5.02158e-05
4.98537e-05
4.93583e-05
4.87359e-05
4.79936e-05
4.71374e-05
4.6174e-05
4.51103e-05
4.39515e-05
4.27043e-05
4.13741e-05
3.99683e-05
3.84911e-05
3.69491e-05
3.53478e-05
3.36918e-05
3.19875e-05
3.02395e-05
2.84527e-05
2.66331e-05
2.47859e-05
2.29171e-05
2.10319e-05
1.91347e-05
1.72317e-05
1.53274e-05
1.34271e-05
1.15361e-05
9.65875e-06
7.80068e-06
5.96643e-06
4.15982e-06
2.38701e-06
6.51346e-07
-1.04244e-06
-2.68919e-06
-4.28633e-06
-5.82911e-06
-7.31444e-06
-8.73754e-06
-1.00962e-05
-1.13869e-05
-1.26063e-05
-1.37523e-05
-1.48211e-05
-1.58105e-05
-1.67178e-05
-1.75406e-05
-1.8275e-05
-1.89203e-05
-1.94688e-05
-1.99249e-05
-2.02735e-05
-2.05224e-05
-2.0657e-05
-2.06777e-05
-2.0576e-05
-2.03466e-05
-1.99797e-05
-1.94721e-05
-1.88125e-05
-1.80005e-05
-1.70149e-05
-1.58617e-05
-1.45351e-05
-1.30078e-05
-1.13352e-05
-9.44653e-06
-7.37707e-06
-5.11947e-06
-3.05002e-06
-1.07682e-07
2.21506e-06
5.12808e-06
7.88271e-06
1.08236e-05
1.3798e-05
1.67716e-05
1.97512e-05
2.26815e-05
2.55452e-05
2.83127e-05
3.09704e-05
3.34933e-05
3.58665e-05
3.80814e-05
4.01167e-05
4.19799e-05
4.36519e-05
4.51419e-05
4.64403e-05
4.75546e-05
4.84845e-05
4.92354e-05
4.98088e-05
5.02124e-05
5.04502e-05
5.05287e-05
5.04541e-05
5.02327e-05
4.98712e-05
4.93762e-05
4.87542e-05
4.80122e-05
4.71563e-05
4.61931e-05
4.51296e-05
4.39709e-05
4.27237e-05
4.13936e-05
3.99876e-05
3.85103e-05
3.69681e-05
3.53666e-05
3.37103e-05
3.20056e-05
3.02572e-05
2.847e-05
2.665e-05
2.48023e-05
2.29331e-05
2.10473e-05
1.91495e-05
1.72459e-05
1.5341e-05
1.344e-05
1.15483e-05
9.67027e-06
7.81151e-06
5.97652e-06
4.16926e-06
2.39571e-06
6.5936e-07
-1.03509e-06
-2.68255e-06
-4.28034e-06
-5.82375e-06
-7.30968e-06
-8.73343e-06
-1.00927e-05
-1.1384e-05
-1.26039e-05
-1.37506e-05
-1.482e-05
-1.58099e-05
-1.67179e-05
-1.75414e-05
-1.82765e-05
-1.89226e-05
-1.9472e-05
-1.9929e-05
-2.02788e-05
-2.05288e-05
-2.06647e-05
-2.06869e-05
-2.05866e-05
-2.03587e-05
-1.99931e-05
-1.94869e-05
-1.88287e-05
-1.8018e-05
-1.70337e-05
-1.58814e-05
-1.45556e-05
-1.30291e-05
-1.1357e-05
-9.4699e-06
-7.40057e-06
-5.14047e-06
-3.07928e-06
-1.34889e-07
2.18861e-06
5.09789e-06
7.8543e-06
1.07949e-05
1.37704e-05
1.67468e-05
1.97293e-05
2.26631e-05
2.55302e-05
2.83014e-05
3.09624e-05
3.3489e-05
3.58657e-05
3.80841e-05
4.01229e-05
4.19887e-05
4.36629e-05
4.51544e-05
4.64542e-05
4.75696e-05
4.85005e-05
4.92524e-05
4.98267e-05
5.02311e-05
5.04695e-05
5.05487e-05
5.04747e-05
5.02538e-05
4.98926e-05
4.9398e-05
4.87762e-05
4.80344e-05
4.71787e-05
4.62155e-05
4.5152e-05
4.39932e-05
4.27459e-05
4.14156e-05
4.00093e-05
3.85317e-05
3.69892e-05
3.53871e-05
3.37304e-05
3.20251e-05
3.02762e-05
2.84884e-05
2.66678e-05
2.48195e-05
2.29495e-05
2.1063e-05
1.91645e-05
1.72601e-05
1.53544e-05
1.34526e-05
1.15601e-05
9.68116e-06
7.82155e-06
5.98568e-06
4.17763e-06
2.40321e-06
6.66066e-07
-1.02915e-06
-2.67744e-06
-4.27599e-06
-5.82015e-06
-7.30678e-06
-8.73126e-06
-1.00912e-05
-1.13831e-05
-1.26037e-05
-1.3751e-05
-1.48211e-05
-1.58117e-05
-1.67203e-05
-1.75444e-05
-1.82803e-05
-1.89271e-05
-1.94774e-05
-1.99354e-05
-2.02863e-05
-2.05375e-05
-2.06748e-05
-2.06983e-05
-2.05995e-05
-2.03729e-05
-2.00089e-05
-1.95041e-05
-1.88473e-05
-1.8038e-05
-1.70551e-05
-1.59038e-05
-1.45788e-05
-1.30531e-05
-1.13813e-05
-9.49581e-06
-7.42638e-06
-5.16383e-06
-3.11049e-06
-1.65178e-07
2.15993e-06
5.06523e-06
7.82385e-06
1.07645e-05
1.37414e-05
1.67212e-05
1.9707e-05
2.26449e-05
2.55159e-05
2.82912e-05
3.09565e-05
3.34876e-05
3.58687e-05
3.80912e-05
4.01335e-05
4.20018e-05
4.36781e-05
4.51712e-05
4.64725e-05
4.75892e-05
4.85212e-05
4.92739e-05
4.98492e-05
5.02543e-05
5.04934e-05
5.05732e-05
5.04996e-05
5.02791e-05
4.99182e-05
4.94237e-05
4.8802e-05
4.80603e-05
4.72045e-05
4.62413e-05
4.51775e-05
4.40184e-05
4.27708e-05
4.14402e-05
4.00334e-05
3.85553e-05
3.70122e-05
3.54095e-05
3.37521e-05
3.20461e-05
3.02964e-05
2.85078e-05
2.66864e-05
2.48373e-05
2.29664e-05
2.1079e-05
1.91796e-05
1.72743e-05
1.53675e-05
1.34647e-05
1.15712e-05
9.69136e-06
7.83074e-06
5.99384e-06
4.18483e-06
2.40942e-06
6.7135e-07
-1.02474e-06
-2.67396e-06
-4.27337e-06
-5.81839e-06
-7.30584e-06
-8.73114e-06
-1.00917e-05
-1.13844e-05
-1.26057e-05
-1.37536e-05
-1.48244e-05
-1.58156e-05
-1.67248e-05
-1.75496e-05
-1.82861e-05
-1.89335e-05
-1.94846e-05
-1.99435e-05
-2.02956e-05
-2.0548e-05
-2.06868e-05
-2.07118e-05
-2.06144e-05
-2.03893e-05
-2.00269e-05
-1.95237e-05
-1.88684e-05
-1.80606e-05
-1.70792e-05
-1.59289e-05
-1.46048e-05
-1.30799e-05
-1.14085e-05
-9.52467e-06
-7.45499e-06
-5.19021e-06
-3.14403e-06
-1.98573e-07
2.12899e-06
5.03018e-06
7.79143e-06
1.07326e-05
1.37112e-05
1.66948e-05
1.96844e-05
2.26269e-05
2.55027e-05
2.82834e-05
3.09538e-05
3.34901e-05
3.5876e-05
3.81024e-05
4.01481e-05
4.20191e-05
4.36977e-05
4.51925e-05
4.64955e-05
4.76134e-05
4.85466e-05
4.93003e-05
4.98764e-05
5.02822e-05
5.05219e-05
5.06022e-05
5.05289e-05
5.03087e-05
4.9948e-05
4.94535e-05
4.88318e-05
4.80899e-05
4.72339e-05
4.62704e-05
4.52063e-05
4.40468e-05
4.27987e-05
4.14675e-05
4.00601e-05
3.85812e-05
3.70373e-05
3.54338e-05
3.37755e-05
3.20686e-05
3.03179e-05
2.85283e-05
2.6706e-05
2.48558e-05
2.29839e-05
2.10954e-05
1.91948e-05
1.72884e-05
1.53805e-05
1.34765e-05
1.15819e-05
9.70086e-06
7.83909e-06
6.00101e-06
4.19088e-06
2.41429e-06
6.75168e-07
-1.0219e-06
-2.67213e-06
-4.27248e-06
-5.81843e-06
-7.30676e-06
-8.73296e-06
-1.00943e-05
-1.13876e-05
-1.26096e-05
-1.3758e-05
-1.48292e-05
-1.58211e-05
-1.6731e-05
-1.75564e-05
-1.82937e-05
-1.89417e-05
-1.94936e-05
-1.99534e-05
-2.03069e-05
-2.05605e-05
-2.07008e-05
-2.07274e-05
-2.06317e-05
-2.04083e-05
-2.00477e-05
-1.95461e-05
-1.88925e-05
-1.80862e-05
-1.71064e-05
-1.59573e-05
-1.46339e-05
-1.311e-05
-1.14388e-05
-9.5567e-06
-7.4866e-06
-5.21977e-06
-3.17995e-06
-2.35113e-07
2.09575e-06
4.99274e-06
7.75695e-06
1.06989e-05
1.36796e-05
1.66677e-05
1.96622e-05
2.26105e-05
2.54921e-05
2.82789e-05
3.09548e-05
3.34961e-05
3.58867e-05
3.81171e-05
4.01665e-05
4.20404e-05
4.37216e-05
4.52185e-05
4.65232e-05
4.76425e-05
4.85769e-05
4.93315e-05
4.99085e-05
5.03151e-05
5.05553e-05
5.0636e-05
5.0563e-05
5.0343e-05
4.99823e-05
4.94878e-05
4.88658e-05
4.81237e-05
4.72673e-05
4.63033e-05
4.52386e-05
4.40785e-05
4.28297e-05
4.14977e-05
4.00894e-05
3.86096e-05
3.70648e-05
3.54602e-05
3.38008e-05
3.20928e-05
3.03409e-05
2.85501e-05
2.67265e-05
2.48753e-05
2.30021e-05
2.11123e-05
1.92104e-05
1.73026e-05
1.53933e-05
1.3488e-05
1.1592e-05
9.70972e-06
7.84665e-06
6.00725e-06
4.19587e-06
2.41797e-06
6.77615e-07
-1.02059e-06
-2.67197e-06
-4.27333e-06
-5.82019e-06
-7.3092e-06
-8.73618e-06
-1.00984e-05
-1.13925e-05
-1.26152e-05
-1.37642e-05
-1.48359e-05
-1.58284e-05
-1.67389e-05
-1.75651e-05
-1.83031e-05
-1.8952e-05
-1.95049e-05
-1.99656e-05
-2.03205e-05
-2.05755e-05
-2.07174e-05
-2.07457e-05
-2.06518e-05
-2.04302e-05
-2.00714e-05
-1.95715e-05
-1.89196e-05
-1.81149e-05
-1.71369e-05
-1.59889e-05
-1.46663e-05
-1.31434e-05
-1.14722e-05
-9.59195e-06
-7.52124e-06
-5.25259e-06
-3.2183e-06
-2.74911e-07
2.05996e-06
4.95276e-06
7.72035e-06
1.06637e-05
1.36474e-05
1.66413e-05
1.96415e-05
2.25965e-05
2.54842e-05
2.82769e-05
3.09582e-05
3.35049e-05
3.59004e-05
3.81353e-05
4.01888e-05
4.2066e-05
4.37501e-05
4.52491e-05
4.65558e-05
4.76766e-05
4.86123e-05
4.9368e-05
4.99459e-05
5.03531e-05
5.05939e-05
5.0675e-05
5.06021e-05
5.03821e-05
5.00213e-05
4.95266e-05
4.89043e-05
4.81617e-05
4.73048e-05
4.63402e-05
4.52747e-05
4.41138e-05
4.2864e-05
4.15311e-05
4.01217e-05
3.86408e-05
3.70949e-05
3.5489e-05
3.38284e-05
3.21189e-05
3.03656e-05
2.85734e-05
2.67484e-05
2.48957e-05
2.30211e-05
2.11298e-05
1.92265e-05
1.73171e-05
1.54062e-05
1.34992e-05
1.16017e-05
9.7179e-06
7.85333e-06
6.01247e-06
4.19983e-06
2.42072e-06
6.7908e-07
-1.02045e-06
-2.67313e-06
-4.27565e-06
-5.82353e-06
-7.3133e-06
-8.74111e-06
-1.01042e-05
-1.13992e-05
-1.26227e-05
-1.37724e-05
-1.48448e-05
-1.5838e-05
-1.67493e-05
-1.75761e-05
-1.8315e-05
-1.89646e-05
-1.95187e-05
-1.99804e-05
-2.03367e-05
-2.0593e-05
-2.07367e-05
-2.07667e-05
-2.06747e-05
-2.04549e-05
-2.00981e-05
-1.96e-05
-1.895e-05
-1.81469e-05
-1.71707e-05
-1.60239e-05
-1.47021e-05
-1.31803e-05
-1.1509e-05
-9.63058e-06
-7.55909e-06
-5.28886e-06
-3.25929e-06
-3.17913e-07
2.02164e-06
4.91065e-06
7.68249e-06
1.06281e-05
1.36158e-05
1.66161e-05
1.96222e-05
2.25836e-05
2.54775e-05
2.82764e-05
3.09635e-05
3.3516e-05
3.59171e-05
3.81569e-05
4.02151e-05
4.2096e-05
4.37833e-05
4.52847e-05
4.65935e-05
4.7716e-05
4.86531e-05
4.94099e-05
4.99887e-05
5.03966e-05
5.06379e-05
5.07193e-05
5.06466e-05
5.04265e-05
5.00655e-05
4.95704e-05
4.89477e-05
4.82045e-05
4.73469e-05
4.63815e-05
4.5315e-05
4.41531e-05
4.29022e-05
4.1568e-05
4.01573e-05
3.86751e-05
3.71278e-05
3.55204e-05
3.38584e-05
3.21473e-05
3.03924e-05
2.85984e-05
2.67717e-05
2.49173e-05
2.3041e-05
2.11479e-05
1.92429e-05
1.73318e-05
1.54193e-05
1.35107e-05
1.16114e-05
9.72573e-06
7.85937e-06
6.01681e-06
4.2027e-06
2.42222e-06
6.79206e-07
-1.02175e-06
-2.67583e-06
-4.27958e-06
-5.82863e-06
-7.31952e-06
-8.74838e-06
-1.01124e-05
-1.14083e-05
-1.26325e-05
-1.37831e-05
-1.48562e-05
-1.58501e-05
-1.67621e-05
-1.75897e-05
-1.83294e-05
-1.89798e-05
-1.9535e-05
-1.99977e-05
-2.03555e-05
-2.06132e-05
-2.07587e-05
-2.07905e-05
-2.07005e-05
-2.04827e-05
-2.01279e-05
-1.96317e-05
-1.89837e-05
-1.81824e-05
-1.72082e-05
-1.60626e-05
-1.47416e-05
-1.32208e-05
-1.15493e-05
-9.67284e-06
-7.60037e-06
-5.32882e-06
-3.3031e-06
-3.6323e-07
1.98143e-06
4.86728e-06
7.64397e-06
1.05925e-05
1.35839e-05
1.65905e-05
1.96026e-05
2.25707e-05
2.54711e-05
2.82768e-05
3.09704e-05
3.35294e-05
3.59368e-05
3.81821e-05
4.02455e-05
4.21303e-05
4.38212e-05
4.53253e-05
4.66365e-05
4.77608e-05
4.86994e-05
4.94574e-05
5.00373e-05
5.04459e-05
5.06878e-05
5.07695e-05
5.06969e-05
5.04767e-05
5.01153e-05
4.96197e-05
4.89963e-05
4.82523e-05
4.73939e-05
4.64276e-05
4.536e-05
4.41969e-05
4.29446e-05
4.1609e-05
4.01966e-05
3.87128e-05
3.71637e-05
3.55546e-05
3.38907e-05
3.21778e-05
3.04211e-05
2.86255e-05
2.67969e-05
2.49405e-05
2.3062e-05
2.11668e-05
1.92597e-05
1.73466e-05
1.54324e-05
1.3522e-05
1.16206e-05
9.73299e-06
7.8647e-06
6.02023e-06
4.20433e-06
2.4221e-06
6.77485e-07
-1.02497e-06
-2.6805e-06
-4.28557e-06
-5.83588e-06
-7.32796e-06
-8.75796e-06
-1.0123e-05
-1.14198e-05
-1.26449e-05
-1.37962e-05
-1.48702e-05
-1.58648e-05
-1.67775e-05
-1.76059e-05
-1.83464e-05
-1.89977e-05
-1.95539e-05
-2.00177e-05
-2.03771e-05
-2.06363e-05
-2.07836e-05
-2.08174e-05
-2.07294e-05
-2.05137e-05
-2.01611e-05
-1.96669e-05
-1.9021e-05
-1.82216e-05
-1.72495e-05
-1.61052e-05
-1.47848e-05
-1.32652e-05
-1.15933e-05
-9.71859e-06
-7.64488e-06
-5.37215e-06
-3.34906e-06
-4.10723e-07
1.93924e-06
4.82219e-06
7.60354e-06
1.05548e-05
1.355e-05
1.6563e-05
1.95817e-05
2.25571e-05
2.54648e-05
2.8278e-05
3.0979e-05
3.35451e-05
3.59593e-05
3.82108e-05
4.02798e-05
4.21691e-05
4.38639e-05
4.5371e-05
4.66849e-05
4.78113e-05
4.87517e-05
4.95109e-05
5.00919e-05
5.05014e-05
5.07438e-05
5.08259e-05
5.07533e-05
5.0533e-05
5.01713e-05
4.9675e-05
4.90507e-05
4.83058e-05
4.74462e-05
4.64786e-05
4.54096e-05
4.4245e-05
4.29912e-05
4.16542e-05
4.02402e-05
3.87544e-05
3.72032e-05
3.55919e-05
3.39258e-05
3.22106e-05
3.04517e-05
2.86542e-05
2.68236e-05
2.49649e-05
2.30841e-05
2.11866e-05
1.92772e-05
1.73617e-05
1.54452e-05
1.35326e-05
1.1629e-05
9.73933e-06
7.86896e-06
6.02247e-06
4.20464e-06
2.4205e-06
6.74101e-07
-1.03002e-06
-2.68714e-06
-4.29365e-06
-5.84535e-06
-7.33871e-06
-8.76994e-06
-1.01361e-05
-1.14338e-05
-1.26599e-05
-1.3812e-05
-1.48868e-05
-1.58822e-05
-1.67956e-05
-1.76247e-05
-1.83661e-05
-1.90183e-05
-1.95757e-05
-2.00405e-05
-2.04016e-05
-2.06623e-05
-2.08116e-05
-2.08474e-05
-2.07617e-05
-2.05482e-05
-2.01978e-05
-1.97058e-05
-1.90621e-05
-1.82648e-05
-1.72944e-05
-1.61511e-05
-1.48313e-05
-1.33126e-05
-1.16401e-05
-9.76718e-06
-7.6921e-06
-5.4185e-06
-3.39686e-06
-4.6189e-07
1.89355e-06
4.77361e-06
7.55948e-06
1.05137e-05
1.35131e-05
1.65331e-05
1.9559e-05
2.25425e-05
2.54583e-05
2.82799e-05
3.09889e-05
3.35629e-05
3.59847e-05
3.82428e-05
4.03181e-05
4.22123e-05
4.39115e-05
4.5422e-05
4.6739e-05
4.78679e-05
4.88103e-05
4.95711e-05
5.01533e-05
5.05636e-05
5.08067e-05
5.0889e-05
5.08164e-05
5.05958e-05
5.02336e-05
4.97369e-05
4.91118e-05
4.83656e-05
4.75046e-05
4.65354e-05
4.54646e-05
4.42981e-05
4.30423e-05
4.17034e-05
4.02875e-05
3.87997e-05
3.72461e-05
3.56323e-05
3.39638e-05
3.22461e-05
3.04845e-05
2.86845e-05
2.68514e-05
2.49902e-05
2.3107e-05
2.12069e-05
1.9295e-05
1.73771e-05
1.54581e-05
1.3543e-05
1.1637e-05
9.74498e-06
7.8723e-06
6.02358e-06
4.20362e-06
2.4174e-06
6.69039e-07
-1.03692e-06
-2.69578e-06
-4.30389e-06
-5.85712e-06
-7.35188e-06
-8.78442e-06
-1.01517e-05
-1.14505e-05
-1.26776e-05
-1.38306e-05
-1.49062e-05
-1.59024e-05
-1.68166e-05
-1.76465e-05
-1.83888e-05
-1.90419e-05
-1.96006e-05
-2.00665e-05
-2.04292e-05
-2.06916e-05
-2.08429e-05
-2.08809e-05
-2.07976e-05
-2.05864e-05
-2.02385e-05
-1.97487e-05
-1.91072e-05
-1.83113e-05
-1.73422e-05
-1.62e-05
-1.48808e-05
-1.33632e-05
-1.16902e-05
-9.81906e-06
-7.74269e-06
-5.46875e-06
-3.44775e-06
-5.18266e-07
1.84293e-06
4.72024e-06
7.51078e-06
1.04683e-05
1.34725e-05
1.65003e-05
1.95341e-05
2.25265e-05
2.54513e-05
2.8282e-05
3.09999e-05
3.35826e-05
3.60126e-05
3.82784e-05
4.03607e-05
4.22605e-05
4.39646e-05
4.54792e-05
4.67997e-05
4.79313e-05
4.88761e-05
4.9639e-05
5.02229e-05
5.06343e-05
5.08778e-05
5.09602e-05
5.08874e-05
5.06662e-05
5.03032e-05
4.98056e-05
4.91796e-05
4.84319e-05
4.75692e-05
4.65981e-05
4.55252e-05
4.43565e-05
4.30985e-05
4.17571e-05
4.03387e-05
3.88484e-05
3.72922e-05
3.56758e-05
3.40046e-05
3.22842e-05
3.05198e-05
2.8717e-05
2.68811e-05
2.50172e-05
2.31311e-05
2.12283e-05
1.93136e-05
1.73929e-05
1.54711e-05
1.35533e-05
1.16446e-05
9.74999e-06
7.87476e-06
6.02358e-06
4.20127e-06
2.41275e-06
6.62231e-07
-1.04574e-06
-2.70652e-06
-4.31641e-06
-5.87131e-06
-7.36759e-06
-8.80155e-06
-1.01701e-05
-1.147e-05
-1.26981e-05
-1.38521e-05
-1.49286e-05
-1.59257e-05
-1.68407e-05
-1.76715e-05
-1.84147e-05
-1.90687e-05
-1.96286e-05
-2.00957e-05
-2.04602e-05
-2.07244e-05
-2.08779e-05
-2.09182e-05
-2.08373e-05
-2.06286e-05
-2.02833e-05
-1.9796e-05
-1.91565e-05
-1.83612e-05
-1.73934e-05
-1.62531e-05
-1.49349e-05
-1.34186e-05
-1.17451e-05
-9.87591e-06
-7.79831e-06
-5.52449e-06
-3.50324e-06
-5.81002e-07
1.78639e-06
4.66126e-06
7.45677e-06
1.04181e-05
1.34276e-05
1.6464e-05
1.95066e-05
2.25088e-05
2.54434e-05
2.82843e-05
3.10121e-05
3.36045e-05
3.6044e-05
3.83183e-05
4.04087e-05
4.23152e-05
4.40256e-05
4.55448e-05
4.68691e-05
4.80037e-05
4.89509e-05
4.97158e-05
5.03015e-05
5.07138e-05
5.09577e-05
5.104e-05
5.09667e-05
5.07448e-05
5.03807e-05
4.98817e-05
4.92541e-05
4.85046e-05
4.76399e-05
4.66667e-05
4.55915e-05
4.44204e-05
4.31598e-05
4.18158e-05
4.03946e-05
3.89015e-05
3.73424e-05
3.5723e-05
3.40488e-05
3.23253e-05
3.05579e-05
2.87519e-05
2.69129e-05
2.50459e-05
2.31567e-05
2.12507e-05
1.9333e-05
1.74092e-05
1.54843e-05
1.35635e-05
1.16519e-05
9.7544e-06
7.87636e-06
6.02245e-06
4.19754e-06
2.40651e-06
6.53618e-07
-1.05655e-06
-2.71944e-06
-4.33129e-06
-5.88801e-06
-7.38596e-06
-8.82146e-06
-1.01914e-05
-1.14926e-05
-1.27218e-05
-1.38768e-05
-1.49542e-05
-1.59522e-05
-1.68681e-05
-1.76997e-05
-1.84439e-05
-1.90989e-05
-1.96602e-05
-2.01285e-05
-2.04949e-05
-2.07609e-05
-2.09167e-05
-2.09595e-05
-2.08813e-05
-2.06753e-05
-2.03328e-05
-1.98481e-05
-1.9211e-05
-1.84164e-05
-1.745e-05
-1.63116e-05
-1.49947e-05
-1.34801e-05
-1.18063e-05
-9.93898e-06
-7.86021e-06
-5.58691e-06
-3.56436e-06
-6.50997e-07
1.7232e-06
4.596e-06
7.39689e-06
1.03627e-05
1.33782e-05
1.64239e-05
1.94765e-05
2.24895e-05
2.54353e-05
2.82876e-05