/*--------------------------------*- C++ -*----------------------------------*\
  =========                 |
  \\      /  F ield         | OpenFOAM: The Open Source CFD Toolbox
   \\    /   O peration     | Website:  https://openfoam.org
    \\  /    A nd           | Version:  7
     \\/     M anipulation  |
\*---------------------------------------------------------------------------*/
FoamFile
{
    version     2.0;
    format      ascii;
    class       surfaceScalarField;
    location    "5000";
    object      phi;
}
// * * * * * * * * * * * * * * * * * * * * * * * * * * * * * * * * * * * * * //

dimensions      [0 3 -1 0 0 0 0];

internalField   nonuniform List<scalar> 
29254
(
-6.24374e-07
-3.30733e-09
-6.24818e-07
4.43592e-10
-6.22409e-07
-2.40868e-09
-6.19955e-07
-2.45398e-09
-6.16355e-07
-3.60016e-09
-6.11504e-07
-4.85084e-09
-6.05999e-07
-5.50544e-09
-5.99525e-07
-6.47381e-09
-5.92308e-07
-7.21716e-09
-5.84447e-07
-7.86052e-09
-5.76076e-07
-8.37128e-09
-5.67181e-07
-8.8945e-09
-5.5797e-07
-9.2112e-09
-5.48597e-07
-9.37317e-09
-5.39093e-07
-9.50412e-09
-5.29656e-07
-9.43731e-09
-5.20244e-07
-9.41188e-09
-5.11012e-07
-9.23183e-09
-5.0196e-07
-9.05217e-09
-4.93224e-07
-8.73568e-09
-4.84789e-07
-8.43488e-09
-4.76693e-07
-8.09615e-09
-4.68957e-07
-7.73637e-09
-4.61663e-07
-7.29336e-09
-4.54781e-07
-6.88205e-09
-4.48289e-07
-6.49267e-09
-4.42213e-07
-6.0757e-09
-4.36527e-07
-5.6863e-09
-4.31265e-07
-5.26106e-09
-4.26434e-07
-4.83171e-09
-4.22025e-07
-4.40862e-09
-4.18036e-07
-3.9888e-09
-4.14458e-07
-3.5781e-09
-4.11287e-07
-3.17126e-09
-4.08515e-07
-2.77225e-09
-4.06096e-07
-2.41883e-09
-4.04056e-07
-2.03975e-09
-4.02388e-07
-1.66776e-09
-4.01087e-07
-1.30137e-09
-4.00093e-07
-9.9427e-10
-3.99433e-07
-6.59825e-10
-3.99132e-07
-3.01187e-10
-3.99157e-07
2.51847e-11
-3.99537e-07
3.80482e-10
-4.00215e-07
6.77446e-10
-4.01171e-07
9.56146e-10
-4.02406e-07
1.23544e-09
-4.03919e-07
1.51225e-09
-4.05708e-07
1.78936e-09
-4.07761e-07
2.05263e-09
-4.10067e-07
2.306e-09
-4.12638e-07
2.57166e-09
-4.15447e-07
2.80838e-09
-4.18482e-07
3.03538e-09
-4.21735e-07
3.2527e-09
-4.25191e-07
3.45606e-09
-4.28844e-07
3.65353e-09
-4.32679e-07
3.83409e-09
-4.36682e-07
4.00343e-09
-4.40896e-07
4.21407e-09
-4.45263e-07
4.367e-09
-4.49793e-07
4.53013e-09
-4.54442e-07
4.64876e-09
-4.59146e-07
4.70366e-09
-4.63943e-07
4.79771e-09
-4.68828e-07
4.88443e-09
-4.73791e-07
4.96369e-09
-4.78787e-07
4.99601e-09
-4.83836e-07
5.04858e-09
-4.88933e-07
5.09742e-09
-4.94068e-07
5.13436e-09
-4.9924e-07
5.17212e-09
-5.04438e-07
5.19809e-09
-5.0966e-07
5.2219e-09
-5.14906e-07
5.24633e-09
-5.20176e-07
5.2699e-09
-5.25465e-07
5.2886e-09
-5.30791e-07
5.32659e-09
-5.36127e-07
5.33559e-09
-5.41535e-07
5.40796e-09
-5.46932e-07
5.39763e-09
-5.52399e-07
5.4666e-09
-5.57882e-07
5.48318e-09
-5.63386e-07
5.50406e-09
-5.68915e-07
5.52908e-09
-5.74463e-07
5.54723e-09
-5.79984e-07
5.52124e-09
-5.85456e-07
5.47239e-09
-5.90845e-07
5.38884e-09
-5.96142e-07
5.29712e-09
-6.01205e-07
5.06303e-09
-6.06109e-07
4.90336e-09
-6.10735e-07
4.62661e-09
-6.14747e-07
4.01163e-09
-6.18511e-07
3.76394e-09
-6.21323e-07
2.81201e-09
-6.23041e-07
1.71812e-09
-6.24137e-07
1.09599e-09
3.54672e-09
-1.93862e-06
-1.2295e-08
-1.93925e-06
1.07107e-09
-1.93736e-06
-4.29243e-09
-1.93709e-06
-2.72799e-09
-1.93566e-06
-5.03254e-09
-1.93129e-06
-9.21862e-09
-1.92546e-06
-1.13357e-08
-1.91714e-06
-1.47941e-08
-1.90664e-06
-1.77168e-08
-1.89417e-06
-2.03269e-08
-1.88e-06
-2.25411e-08
-1.86412e-06
-2.47749e-08
-1.84697e-06
-2.63699e-08
-1.82886e-06
-2.74764e-08
-1.80993e-06
-2.84368e-08
-1.79066e-06
-2.87087e-08
-1.77098e-06
-2.9094e-08
-1.7513e-06
-2.89073e-08
-1.73169e-06
-2.86667e-08
-1.71248e-06
-2.79445e-08
-1.69371e-06
-2.72032e-08
-1.6755e-06
-2.63095e-08
-1.65793e-06
-2.53017e-08
-1.64122e-06
-2.40065e-08
-1.62534e-06
-2.2757e-08
-1.61033e-06
-2.15011e-08
-1.59626e-06
-2.01524e-08
-1.5831e-06
-1.88428e-08
-1.57096e-06
-1.74057e-08
-1.55986e-06
-1.59236e-08
-1.54983e-06
-1.44405e-08
-1.54087e-06
-1.29465e-08
-1.53299e-06
-1.14619e-08
-1.52619e-06
-9.97433e-09
-1.52046e-06
-8.50405e-09
-1.51571e-06
-7.1638e-09
-1.51201e-06
-5.7362e-09
-1.50936e-06
-4.31689e-09
-1.50775e-06
-2.91633e-09
-1.50706e-06
-1.68467e-09
-1.50735e-06
-3.6877e-10
-1.50864e-06
9.86855e-10
-1.51087e-06
2.26021e-09
-1.5141e-06
3.60826e-09
-1.51819e-06
4.76671e-09
-1.52308e-06
5.84476e-09
-1.52876e-06
6.9183e-09
-1.53523e-06
7.97693e-09
-1.54248e-06
9.0404e-09
-1.55047e-06
1.00486e-08
-1.55918e-06
1.1009e-08
-1.5686e-06
1.19944e-08
-1.57866e-06
1.28663e-08
-1.58931e-06
1.36832e-08
-1.6005e-06
1.44489e-08
-1.61219e-06
1.51405e-08
-1.62432e-06
1.579e-08
-1.63684e-06
1.63547e-08
-1.6497e-06
1.68591e-08
-1.66294e-06
1.74539e-08
-1.67641e-06
1.78423e-08
-1.69008e-06
1.8196e-08
-1.70385e-06
1.84151e-08
-1.71754e-06
1.83973e-08
-1.73119e-06
1.84499e-08
-1.74476e-06
1.84498e-08
-1.75818e-06
1.83853e-08
-1.77132e-06
1.81413e-08
-1.7842e-06
1.79204e-08
-1.79676e-06
1.76639e-08
-1.80896e-06
1.73365e-08
-1.82078e-06
1.69878e-08
-1.83215e-06
1.65716e-08
-1.84306e-06
1.6131e-08
-1.8535e-06
1.56808e-08
-1.86344e-06
1.52113e-08
-1.87285e-06
1.47045e-08
-1.88179e-06
1.42618e-08
-1.89016e-06
1.37101e-08
-1.89814e-06
1.33843e-08
-1.9055e-06
1.27551e-08
-1.91245e-06
1.24145e-08
-1.91887e-06
1.19116e-08
-1.92482e-06
1.14485e-08
-1.9303e-06
1.10147e-08
-1.93532e-06
1.05657e-08
-1.93978e-06
9.97833e-09
-1.94369e-06
9.38266e-09
-1.94699e-06
8.68449e-09
-1.9497e-06
8.00763e-09
-1.95148e-06
6.84721e-09
-1.95256e-06
5.98142e-09
-1.9529e-06
4.96713e-09
-1.95196e-06
3.07225e-09
-1.95081e-06
2.60931e-09
-1.94804e-06
4.69296e-11
-1.94471e-06
-1.60817e-09
-1.94292e-06
-7.01479e-10
8.23893e-09
-3.3679e-06
-2.83699e-08
-3.3697e-06
2.87258e-09
-3.37358e-06
-4.11592e-10
-3.38369e-06
7.377e-09
-3.39477e-06
6.04767e-09
-3.40236e-06
-1.62236e-09
-3.4085e-06
-5.19472e-09
-3.41126e-06
-1.2039e-08
-3.41072e-06
-1.82581e-08
-3.40706e-06
-2.39845e-08
-3.40058e-06
-2.90247e-08
-3.39117e-06
-3.4182e-08
-3.37938e-06
-3.81546e-08
-3.36564e-06
-4.12173e-08
-3.35007e-06
-4.4008e-08
-3.33339e-06
-4.53856e-08
-3.31546e-06
-4.70294e-08
-3.29692e-06
-4.74451e-08
-3.27788e-06
-4.77053e-08
-3.25886e-06
-4.69661e-08
-3.23995e-06
-4.61095e-08
-3.22135e-06
-4.49161e-08
-3.2032e-06
-4.34464e-08
-3.18583e-06
-4.13786e-08
-3.16926e-06
-3.93252e-08
-3.15362e-06
-3.71442e-08
-3.13902e-06
-3.47578e-08
-3.12549e-06
-3.23707e-08
-3.11319e-06
-2.96994e-08
-3.10223e-06
-2.68858e-08
-3.09265e-06
-2.40258e-08
-3.08449e-06
-2.10981e-08
-3.07781e-06
-1.81489e-08
-3.07263e-06
-1.51565e-08
-3.06896e-06
-1.21733e-08
-3.06671e-06
-9.41151e-09
-3.06599e-06
-6.45537e-09
-3.06682e-06
-3.49052e-09
-3.06918e-06
-5.47931e-10
-3.07297e-06
2.0966e-09
-3.07825e-06
4.914e-09
-3.08502e-06
7.75702e-09
-3.09322e-06
1.04668e-08
-3.10292e-06
1.33004e-08
-3.11391e-06
1.57597e-08
-3.12609e-06
1.80235e-08
-3.13942e-06
2.02524e-08
-3.15388e-06
2.24355e-08
-3.16948e-06
2.46372e-08
-3.18615e-06
2.6716e-08
-3.20381e-06
2.86723e-08
-3.22245e-06
3.06378e-08
-3.24193e-06
3.23422e-08
-3.26213e-06
3.38896e-08
-3.28298e-06
3.52914e-08
-3.30433e-06
3.64899e-08
-3.32609e-06
3.75533e-08
-3.34812e-06
3.83876e-08
-3.37031e-06
3.90464e-08
-3.39266e-06
3.97997e-08
-3.41491e-06
4.00937e-08
-3.43691e-06
4.02024e-08
-3.45854e-06
4.00369e-08
-3.47948e-06
3.93394e-08
-3.49971e-06
3.86827e-08
-3.51911e-06
3.78503e-08
-3.53754e-06
3.68172e-08
-3.55477e-06
3.53699e-08
-3.57074e-06
3.38926e-08
-3.58537e-06
3.22909e-08
-3.59853e-06
3.04919e-08
-3.61014e-06
2.86061e-08
-3.62011e-06
2.65415e-08
-3.62839e-06
2.44028e-08
-3.63494e-06
2.22326e-08
-3.63973e-06
2.00066e-08
-3.6427e-06
1.7674e-08
-3.64393e-06
1.54927e-08
-3.6433e-06
1.30731e-08
-3.64109e-06
1.11785e-08
-3.63696e-06
8.62901e-09
-3.6313e-06
6.75201e-09
-3.62399e-06
4.60004e-09
-3.61516e-06
2.61396e-09
-3.60489e-06
7.53247e-10
-3.59326e-06
-1.07059e-09
-3.58016e-06
-3.11554e-09
-3.56577e-06
-5.01464e-09
-3.55004e-06
-7.0407e-09
-3.53315e-06
-8.88348e-09
-3.51466e-06
-1.16437e-08
-3.49508e-06
-1.35939e-08
-3.47481e-06
-1.53061e-08
-3.45339e-06
-1.83459e-08
-3.43293e-06
-1.78577e-08
-3.41195e-06
-2.09285e-08
-3.39394e-06
-1.96183e-08
-3.3825e-06
-1.21424e-08
9.71274e-09
-4.87872e-06
-5.289e-08
-4.88215e-06
6.3064e-09
-4.89422e-06
1.16616e-08
-4.9192e-06
3.23561e-08
-4.94864e-06
3.54901e-08
-4.97513e-06
2.48678e-08
-5.00099e-06
2.06651e-08
-5.02326e-06
1.02315e-08
-5.04168e-06
1.58454e-10
-5.0563e-06
-9.36838e-09
-5.06738e-06
-1.7938e-08
-5.07477e-06
-2.67947e-08
-5.07893e-06
-3.39999e-08
-5.08027e-06
-3.98682e-08
-5.0789e-06
-4.53828e-08
-5.07566e-06
-4.86245e-08
-5.07029e-06
-5.24014e-08
-5.06364e-06
-5.40912e-08
-5.05581e-06
-5.55331e-08
-5.04741e-06
-5.53724e-08
-5.03859e-06
-5.49236e-08
-5.0296e-06
-5.39094e-08
-5.02062e-06
-5.24303e-08
-5.01196e-06
-5.00393e-08
-5.00377e-06
-4.75081e-08
-4.99629e-06
-4.463e-08
-4.98962e-06
-4.14269e-08
-4.98392e-06
-3.80682e-08
-4.97935e-06
-3.4266e-08
-4.97607e-06
-3.01743e-08
-4.97414e-06
-2.59488e-08
-4.97369e-06
-2.15512e-08
-4.97477e-06
-1.7066e-08
-4.97747e-06
-1.24599e-08
-4.98182e-06
-7.82532e-09
-4.98778e-06
-3.45118e-09
-4.99546e-06
1.22281e-09
-5.0049e-06
5.95133e-09
-5.01612e-06
1.0676e-08
-5.02907e-06
1.50498e-08
-5.04378e-06
1.96191e-08
-5.06019e-06
2.41626e-08
-5.07827e-06
2.85485e-08
-5.09801e-06
3.30439e-08
-5.11925e-06
3.70028e-08
-5.14183e-06
4.05993e-08
-5.16566e-06
4.40814e-08
-5.19066e-06
4.74369e-08
-5.21687e-06
5.0846e-08
-5.2442e-06
5.40484e-08
-5.27253e-06
5.70019e-08
-5.30179e-06
5.98949e-08
-5.33176e-06
6.23182e-08
-5.36229e-06
6.44197e-08
-5.39322e-06
6.62145e-08
-5.42432e-06
6.75897e-08
-5.45543e-06
6.86674e-08
-5.48633e-06
6.92824e-08
-5.5168e-06
6.95195e-08
-5.54671e-06
6.97097e-08
-5.57576e-06
6.91442e-08
-5.60366e-06
6.80985e-08
-5.6302e-06
6.65841e-08
-5.65509e-06
6.42296e-08
-5.67813e-06
6.17153e-08
-5.69908e-06
5.88009e-08
-5.71772e-06
5.54568e-08
-5.73375e-06
5.14033e-08
-5.74701e-06
4.71512e-08
-5.75734e-06
4.26238e-08
-5.76455e-06
3.76972e-08
-5.76852e-06
3.25775e-08
-5.76909e-06
2.71123e-08
-5.76619e-06
2.15049e-08
-5.75981e-06
1.58502e-08
-5.7499e-06
1.00992e-08
-5.73637e-06
4.14001e-09
-5.71935e-06
-1.51985e-09
-5.6987e-06
-7.57699e-09
-5.6749e-06
-1.26242e-08
-5.64748e-06
-1.87959e-08
-5.61704e-06
-2.36827e-08
-5.58352e-06
-2.8918e-08
-5.54722e-06
-3.3689e-08
-5.50833e-06
-3.81365e-08
-5.46702e-06
-4.23831e-08
-5.42327e-06
-4.68592e-08
-5.37751e-06
-5.07765e-08
-5.32977e-06
-5.47864e-08
-5.28044e-06
-5.82073e-08
-5.2291e-06
-6.29861e-08
-5.17657e-06
-6.61277e-08
-5.12395e-06
-6.79195e-08
-5.07106e-06
-7.12348e-08
-5.02135e-06
-6.75708e-08
-4.97366e-06
-6.86167e-08
-4.9343e-06
-5.89813e-08
-4.90799e-06
-3.84484e-08
4.95335e-09
-6.38294e-06
-8.6565e-08
-6.38786e-06
1.12341e-08
-6.40839e-06
3.21897e-08
-6.44848e-06
7.24466e-08
-6.49691e-06
8.39185e-08
-6.54364e-06
7.15959e-08
-6.59108e-06
6.81097e-08
-6.63534e-06
5.44906e-08
-6.67574e-06
4.05529e-08
-6.71216e-06
2.70588e-08
-6.74482e-06
1.47178e-08
-6.77334e-06
1.72113e-09
-6.79815e-06
-9.18724e-09
-6.81968e-06
-1.83367e-08
-6.83789e-06
-2.7176e-08
-6.85375e-06
-3.27667e-08
-6.8668e-06
-3.93458e-08
-6.87807e-06
-4.28264e-08
-6.88759e-06
-4.60083e-08
-6.89604e-06
-4.69193e-08
-6.90359e-06
-4.73728e-08
-6.91048e-06
-4.7028e-08
-6.91687e-06
-4.60346e-08
-6.92312e-06
-4.37892e-08
-6.92941e-06
-4.12191e-08
-6.936e-06
-3.80391e-08
-6.94303e-06
-3.43965e-08
-6.9507e-06
-3.04016e-08
-6.9592e-06
-2.57674e-08
-6.96871e-06
-2.06639e-08
-6.97935e-06
-1.53051e-08
-6.99127e-06
-9.63625e-09
-7.00454e-06
-3.79158e-09
-7.01928e-06
2.27991e-09
-7.03556e-06
8.45791e-09
-7.05339e-06
1.43722e-08
-7.07289e-06
2.07221e-08
-7.09413e-06
2.71906e-08
-7.11715e-06
3.36972e-08
-7.14191e-06
3.98113e-08
-7.16843e-06
4.61455e-08
-7.19665e-06
5.23764e-08
-7.22653e-06
5.84324e-08
-7.25807e-06
6.45767e-08
-7.29108e-06
7.00214e-08
-7.3254e-06
7.49178e-08
-7.36087e-06
7.95447e-08
-7.3973e-06
8.38683e-08
-7.43474e-06
8.82887e-08
-7.47311e-06
9.24189e-08
-7.51223e-06
9.61242e-08
-7.55198e-06
9.9645e-08
-7.59209e-06
1.0243e-07
-7.63233e-06
1.04657e-07
-7.67247e-06
1.06357e-07
-7.71222e-06
1.0734e-07
-7.75135e-06
1.0779e-07
-7.78952e-06
1.07459e-07
-7.82646e-06
1.0646e-07
-7.86194e-06
1.05183e-07
-7.89555e-06
1.02756e-07
-7.92691e-06
9.94578e-08
-7.95574e-06
9.54182e-08
-7.98166e-06
9.01511e-08
-8.00438e-06
8.4428e-08
-8.02356e-06
7.7984e-08
-8.0389e-06
7.07968e-08
-8.05002e-06
6.2519e-08
-8.05666e-06
5.38007e-08
-8.05863e-06
4.45882e-08
-8.05564e-06
3.4712e-08
-8.04756e-06
2.44985e-08
-8.03418e-06
1.37241e-08
-8.01539e-06
2.72272e-09
-7.99122e-06
-8.32461e-09
-7.96164e-06
-1.94772e-08
-7.92656e-06
-3.0947e-08
-7.88616e-06
-4.1916e-08
-7.84027e-06
-5.34678e-08
-7.78954e-06
-6.33515e-08
-7.73342e-06
-7.49206e-08
-7.67273e-06
-8.43672e-08
-7.60747e-06
-9.41772e-08
-7.53811e-06
-1.03054e-07
-7.46497e-06
-1.11273e-07
-7.38837e-06
-1.18988e-07
-7.30838e-06
-1.26841e-07
-7.22569e-06
-1.33475e-07
-7.14044e-06
-1.40036e-07
-7.05329e-06
-1.45351e-07
-6.9639e-06
-1.52381e-07
-6.87354e-06
-1.56485e-07
-6.78403e-06
-1.57433e-07
-6.69555e-06
-1.59709e-07
-6.61301e-06
-1.50116e-07
-6.53572e-06
-1.45901e-07
-6.47252e-06
-1.22184e-07
-6.42924e-06
-8.17335e-08
-7.67016e-09
-7.79539e-06
-1.29789e-07
-7.80122e-06
1.70629e-08
-7.82893e-06
5.98957e-08
-7.88124e-06
1.2476e-07
-7.94535e-06
1.48026e-07
-8.00935e-06
1.35598e-07
-8.07555e-06
1.34314e-07
-8.13927e-06
1.1821e-07
-8.19949e-06
1.00766e-07
-8.25598e-06
8.35481e-08
-8.30882e-06
6.75571e-08
-8.35756e-06
5.04653e-08
-8.40252e-06
3.57684e-08
-8.44404e-06
2.319e-08
-8.48196e-06
1.07451e-08
-8.51726e-06
2.53284e-09
-8.54936e-06
-7.24393e-09
-8.57938e-06
-1.28108e-08
-8.60731e-06
-1.80763e-08
-8.6338e-06
-2.04274e-08
-8.65906e-06
-2.21208e-08
-8.68328e-06
-2.28054e-08
-8.70663e-06
-2.26813e-08
-8.72943e-06
-2.09867e-08
-8.75189e-06
-1.87598e-08
-8.77429e-06
-1.56389e-08
-8.79678e-06
-1.19117e-08
-8.81962e-06
-7.56064e-09
-8.84296e-06
-2.42213e-09
-8.86701e-06
3.38515e-09
-8.89192e-06
9.59856e-09
-8.91785e-06
1.6292e-08
-8.94492e-06
2.32787e-08
-8.97326e-06
3.06207e-08
-9.00296e-06
3.81656e-08
-9.0341e-06
4.55068e-08
-9.06679e-06
5.34093e-08
-9.10108e-06
6.14854e-08
-9.13703e-06
6.96484e-08
-9.17464e-06
7.74198e-08
-9.2139e-06
8.54008e-08
-9.25471e-06
9.3187e-08
-9.29705e-06
1.00775e-07
-9.34085e-06
1.08378e-07
-9.38602e-06
1.15186e-07
-9.43241e-06
1.21307e-07
-9.47994e-06
1.27076e-07
-9.52842e-06
1.32347e-07
-9.57771e-06
1.37579e-07
-9.62759e-06
1.42302e-07
-9.67784e-06
1.46379e-07
-9.72828e-06
1.50082e-07
-9.77858e-06
1.52733e-07
-9.82846e-06
1.54536e-07
-9.87763e-06
1.55527e-07
-9.92572e-06
1.55427e-07
-9.97243e-06
1.54502e-07
-1.00174e-05
1.5239e-07
-1.00601e-05
1.49244e-07
-1.01004e-05
1.45435e-07
-1.01377e-05
1.40066e-07
-1.01716e-05
1.33355e-07
-1.02017e-05
1.25559e-07
-1.02277e-05
1.16116e-07
-1.02491e-05
1.05801e-07
-1.02655e-05
9.43544e-08
-1.02764e-05
8.17802e-08
-1.02816e-05
6.77059e-08
-1.02807e-05
5.2843e-08
-1.02733e-05
3.72131e-08
-1.02592e-05
2.05927e-08
-1.02381e-05
3.46848e-09
-1.021e-05
-1.44517e-08
-1.01746e-05
-3.26718e-08
-1.0132e-05
-5.09154e-08
-1.00822e-05
-6.9267e-08
-1.00251e-05
-8.80579e-08
-9.96091e-06
-1.06085e-07
-9.88946e-06
-1.24916e-07
-9.81153e-06
-1.41283e-07
-9.72649e-06
-1.59958e-07
-9.63537e-06
-1.75487e-07
-9.53823e-06
-1.91326e-07
-9.43569e-06
-2.05595e-07
-9.32821e-06
-2.18753e-07
-9.21623e-06
-2.30964e-07
-9.09997e-06
-2.43102e-07
-8.98035e-06
-2.53098e-07
-8.85766e-06
-2.62725e-07
-8.7328e-06
-2.70208e-07
-8.60555e-06
-2.79626e-07
-8.47762e-06
-2.84419e-07
-8.35152e-06
-2.83537e-07
-8.2279e-06
-2.83326e-07
-8.11302e-06
-2.64998e-07
-8.00681e-06
-2.52104e-07
-7.92014e-06
-2.08859e-07
-7.85983e-06
-1.42048e-07
-2.8878e-08
-9.10221e-06
-1.83237e-07
-9.10741e-06
2.22554e-08
-9.14007e-06
9.25547e-08
-9.20113e-06
1.8582e-07
-9.27698e-06
2.23879e-07
-9.35453e-06
2.13146e-07
-9.43578e-06
2.15568e-07
-9.51543e-06
1.9786e-07
-9.59217e-06
1.77506e-07
-9.6657e-06
1.57077e-07
-9.736e-06
1.37852e-07
-9.80254e-06
1.1701e-07
-9.86553e-06
9.87579e-08
-9.92523e-06
8.28872e-08
-9.98134e-06
6.68609e-08
-1.00349e-05
5.6053e-08
-1.00851e-05
4.29678e-08
-1.01331e-05
3.52416e-08
-1.0179e-05
2.77853e-08
-1.02233e-05
2.3872e-08
-1.02662e-05
2.07965e-08
-1.03079e-05
1.89211e-08
-1.03486e-05
1.79704e-08
-1.03885e-05
1.88863e-08
-1.04278e-05
2.05409e-08
-1.04668e-05
2.33771e-08
-1.05056e-05
2.69523e-08
-1.05446e-05
3.14502e-08
-1.05839e-05
3.68701e-08
-1.06237e-05
4.31586e-08
-1.06641e-05
5.00179e-08
-1.07054e-05
5.75433e-08
-1.07476e-05
6.54882e-08
-1.07909e-05
7.39297e-08
-1.08354e-05
8.2669e-08
-1.08812e-05
9.1281e-08
-1.09283e-05
1.00564e-07
-1.09769e-05
1.10076e-07
-1.1027e-05
1.19724e-07
-1.10786e-05
1.28991e-07
-1.11316e-05
1.38449e-07
-1.1186e-05
1.47598e-07
-1.12418e-05
1.56529e-07
-1.12988e-05
1.65371e-07
-1.13569e-05
1.73354e-07
-1.14162e-05
1.80529e-07
-1.14764e-05
1.87309e-07
-1.15374e-05
1.93339e-07
-1.15989e-05
1.9906e-07
-1.16605e-05
2.03951e-07
-1.17221e-05
2.07928e-07
-1.17833e-05
2.1128e-07
-1.18438e-05
2.13215e-07
-1.19032e-05
2.13954e-07
-1.19612e-05
2.13542e-07
-1.20174e-05
2.11595e-07
-1.20713e-05
2.08468e-07
-1.21226e-05
2.03678e-07
-1.21708e-05
1.9742e-07
-1.22154e-05
1.90014e-07
-1.22559e-05
1.80587e-07
-1.22918e-05
1.69278e-07
-1.23227e-05
1.56483e-07
-1.23482e-05
1.4157e-07
-1.23677e-05
1.25287e-07
-1.23807e-05
1.07386e-07
-1.23868e-05
8.79241e-08
-1.23856e-05
6.65039e-08
-1.23767e-05
4.38798e-08
-1.23596e-05
2.01727e-08
-1.23342e-05
-4.87874e-09
-1.23001e-05
-3.05992e-08
-1.22572e-05
-5.73507e-08
-1.22054e-05
-8.44863e-08
-1.21447e-05
-1.11631e-07
-1.20751e-05
-1.38887e-07
-1.19964e-05
-1.66717e-07
-1.1909e-05
-1.93487e-07
-1.18126e-05
-2.21273e-07
-1.17082e-05
-2.45693e-07
-1.15951e-05
-2.73065e-07
-1.14745e-05
-2.96122e-07
-1.13464e-05
-3.1936e-07
-1.12118e-05
-3.40248e-07
-1.10711e-05
-3.59445e-07
-1.09249e-05
-3.77117e-07
-1.07737e-05
-3.94358e-07
-1.06185e-05
-4.08311e-07
-1.04598e-05
-4.2144e-07
-1.02987e-05
-4.3129e-07
-1.01352e-05
-4.43125e-07
-9.97136e-06
-4.48244e-07
-9.81034e-06
-4.44554e-07
-9.65328e-06
-4.40387e-07
-9.50753e-06
-4.10746e-07
-9.37361e-06
-3.86031e-07
-9.26388e-06
-3.18586e-07
-9.1863e-06
-2.19628e-07
-5.95152e-08
-1.0324e-05
-2.47059e-07
-1.03281e-05
2.64332e-08
-1.03649e-05
1.29347e-07
-1.04317e-05
2.52621e-07
-1.0516e-05
3.08173e-07
-1.06042e-05
3.01345e-07
-1.06977e-05
3.09001e-07
-1.07907e-05
2.90885e-07
-1.08816e-05
2.68443e-07
-1.09701e-05
2.45597e-07
-1.10561e-05
2.23771e-07
-1.11388e-05
1.99792e-07
-1.12185e-05
1.78438e-07
-1.12953e-05
1.59685e-07
-1.13688e-05
1.40355e-07
-1.14399e-05
1.27154e-07
-1.15078e-05
1.10866e-07
-1.15736e-05
1.01062e-07
-1.16373e-05
9.14708e-08
-1.16995e-05
8.60147e-08
-1.17602e-05
8.15758e-08
-1.18198e-05
7.8485e-08
-1.18782e-05
7.64045e-08
-1.19358e-05
7.64455e-08
-1.19927e-05
7.74123e-08
-1.20491e-05
7.9808e-08
-1.21052e-05
8.30838e-08
-1.21614e-05
8.76153e-08
-1.22177e-05
9.31628e-08
-1.22743e-05
9.97678e-08
-1.23314e-05
1.07094e-07
-1.23891e-05
1.15275e-07
-1.24476e-05
1.23993e-07
-1.2507e-05
1.33341e-07
-1.25674e-05
1.43077e-07
-1.26289e-05
1.52784e-07
-1.26916e-05
1.63238e-07
-1.27555e-05
1.73968e-07
-1.28207e-05
1.84874e-07
-1.28871e-05
1.95419e-07
-1.29547e-05
2.06115e-07
-1.30236e-05
2.16401e-07
-1.30934e-05
2.26413e-07
-1.31642e-05
2.36171e-07
-1.32359e-05
2.45032e-07
-1.33083e-05
2.5293e-07
-1.33813e-05
2.60297e-07
-1.34546e-05
2.66589e-07
-1.35278e-05
2.72297e-07
-1.36007e-05
2.76837e-07
-1.36729e-05
2.80146e-07
-1.37441e-05
2.82527e-07
-1.3814e-05
2.83079e-07
-1.38821e-05
2.82041e-07
-1.3948e-05
2.79461e-07
-1.40113e-05
2.74846e-07
-1.40714e-05
2.68639e-07
-1.4128e-05
2.60238e-07
-1.41804e-05
2.49864e-07
-1.42282e-05
2.37756e-07
-1.42707e-05
2.23151e-07
-1.43076e-05
2.06106e-07
-1.43382e-05
1.87082e-07
-1.4362e-05
1.65427e-07
-1.43786e-05
1.41842e-07
-1.43873e-05
1.16104e-07
-1.43877e-05
8.83177e-08
-1.43793e-05
5.81102e-08
-1.43616e-05
2.62203e-08
-1.43344e-05
-7.09268e-09
-1.42971e-05
-4.21076e-08
-1.42498e-05
-7.79631e-08
-1.4192e-05
-1.15131e-07
-1.41237e-05
-1.52777e-07
-1.40449e-05
-1.90423e-07
-1.39556e-05
-2.28179e-07
-1.38557e-05
-2.66629e-07
-1.37455e-05
-3.03697e-07
-1.36248e-05
-3.41963e-07
-1.34946e-05
-3.75885e-07
-1.33543e-05
-4.13384e-07
-1.32051e-05
-4.45293e-07
-1.30473e-05
-4.77162e-07
-1.28818e-05
-5.05776e-07
-1.27093e-05
-5.31985e-07
-1.25304e-05
-5.55964e-07
-1.23458e-05
-5.78999e-07
-1.21567e-05
-5.97377e-07
-1.19638e-05
-6.14325e-07
-1.17684e-05
-6.26667e-07
-1.15707e-05
-6.40835e-07
-1.13731e-05
-6.45857e-07
-1.11793e-05
-6.38411e-07
-1.09908e-05
-6.28867e-07
-1.08158e-05
-5.85687e-07
-1.06555e-05
-5.46413e-07
-1.05232e-05
-4.50855e-07
-1.04283e-05
-3.14478e-07
-1.0007e-07
-1.14812e-05
-3.20094e-07
-1.14836e-05
2.87748e-08
-1.15234e-05
1.69216e-07
-1.15949e-05
3.24061e-07
-1.16863e-05
3.99568e-07
-1.17839e-05
3.98996e-07
-1.18884e-05
4.13478e-07
-1.19937e-05
3.9622e-07
-1.2098e-05
3.72703e-07
-1.22008e-05
3.48395e-07
-1.23018e-05
3.24763e-07
-1.24004e-05
2.98426e-07
-1.24965e-05
2.74581e-07
-1.25903e-05
2.53478e-07
-1.26813e-05
2.31275e-07
-1.27701e-05
2.16022e-07
-1.2856e-05
1.96751e-07
-1.29399e-05
1.84983e-07
-1.30218e-05
1.73377e-07
-1.31023e-05
1.66501e-07
-1.31815e-05
1.60788e-07
-1.32596e-05
1.56522e-07
-1.33365e-05
1.53304e-07
-1.34125e-05
1.52424e-07
-1.34877e-05
1.52627e-07
-1.35623e-05
1.54476e-07
-1.36366e-05
1.57321e-07
-1.37107e-05
1.6175e-07
-1.37848e-05
1.67256e-07
-1.3859e-05
1.7399e-07
-1.39335e-05
1.81578e-07
-1.40084e-05
1.90196e-07
-1.40839e-05
1.99449e-07
-1.416e-05
2.09461e-07
-1.42369e-05
2.19933e-07
-1.43145e-05
2.30468e-07
-1.43931e-05
2.41819e-07
-1.44726e-05
2.53475e-07
-1.45531e-05
2.65343e-07
-1.46345e-05
2.76856e-07
-1.47169e-05
2.8847e-07
-1.48e-05
2.99546e-07
-1.48839e-05
3.10269e-07
-1.49683e-05
3.2054e-07
-1.50531e-05
3.29847e-07
-1.51381e-05
3.37985e-07
-1.52232e-05
3.45398e-07
-1.5308e-05
3.51369e-07
-1.53922e-05
3.56486e-07
-1.54754e-05
3.60074e-07
-1.55574e-05
3.62066e-07
-1.56376e-05
3.6278e-07
-1.57158e-05
3.61218e-07
-1.57913e-05
3.57625e-07
-1.58639e-05
3.52051e-07
-1.5933e-05
3.43897e-07
-1.5998e-05
3.33692e-07
-1.60585e-05
3.20709e-07
-1.61138e-05
3.05207e-07
-1.61634e-05
2.87318e-07
-1.62067e-05
2.66423e-07
-1.62431e-05
2.42488e-07
-1.6272e-05
2.16037e-07
-1.6293e-05
1.86401e-07
-1.63054e-05
1.54236e-07
-1.63086e-05
1.19342e-07
-1.63022e-05
8.18825e-08
-1.62856e-05
4.15118e-08
-1.62583e-05
-1.03963e-09
-1.62201e-05
-4.53635e-08
-1.61704e-05
-9.17683e-08
-1.61091e-05
-1.39224e-07
-1.6036e-05
-1.88305e-07
-1.59508e-05
-2.37958e-07
-1.58536e-05
-2.8759e-07
-1.57445e-05
-3.37303e-07
-1.56233e-05
-3.87823e-07
-1.54904e-05
-4.36596e-07
-1.53457e-05
-4.86703e-07
-1.51901e-05
-5.3145e-07
-1.50232e-05
-5.80327e-07
-1.48462e-05
-6.22282e-07
-1.46595e-05
-6.63862e-07
-1.44641e-05
-7.01172e-07
-1.42608e-05
-7.3522e-07
-1.40506e-05
-7.66194e-07
-1.3834e-05
-7.95557e-07
-1.36127e-05
-8.18722e-07
-1.33874e-05
-8.39672e-07
-1.31595e-05
-8.5452e-07
-1.29295e-05
-8.70818e-07
-1.27001e-05
-8.75265e-07
-1.24754e-05
-8.63162e-07
-1.22574e-05
-8.46843e-07
-1.20549e-05
-7.88181e-07
-1.18696e-05
-7.31723e-07
-1.17159e-05
-6.04532e-07
-1.16046e-05
-4.25822e-07
-1.5038e-07
-1.25934e-05
-4.00572e-07
-1.25949e-05
3.02735e-08
-1.26387e-05
2.13084e-07
-1.27139e-05
3.9922e-07
-1.28114e-05
4.97098e-07
-1.2918e-05
5.0557e-07
-1.3033e-05
5.28485e-07
-1.31505e-05
5.13697e-07
-1.3268e-05
4.90247e-07
-1.33852e-05
4.65586e-07
-1.35015e-05
4.41032e-07
-1.36163e-05
4.13184e-07
-1.37292e-05
3.87541e-07
-1.38404e-05
3.64705e-07
-1.39493e-05
3.40142e-07
-1.40565e-05
3.2325e-07
-1.41611e-05
3.01323e-07
-1.42638e-05
2.87715e-07
-1.43647e-05
2.74208e-07
-1.44642e-05
2.6604e-07
-1.45626e-05
2.59155e-07
-1.46598e-05
2.53766e-07
-1.47559e-05
2.49418e-07
-1.48511e-05
2.47601e-07
-1.49454e-05
2.4695e-07
-1.50391e-05
2.48124e-07
-1.51321e-05
2.50388e-07
-1.52249e-05
2.54508e-07
-1.53174e-05
2.59758e-07
-1.54098e-05
2.66387e-07
-1.55022e-05
2.73972e-07
-1.55947e-05
2.82746e-07
-1.56875e-05
2.92233e-07
-1.57807e-05
3.02589e-07
-1.58742e-05
3.13465e-07
-1.59682e-05
3.24488e-07
-1.60628e-05
3.36376e-07
-1.61579e-05
3.48584e-07
-1.62536e-05
3.61022e-07
-1.63498e-05
3.73073e-07
-1.64465e-05
3.85173e-07
-1.65435e-05
3.96602e-07
-1.66408e-05
4.07562e-07
-1.67381e-05
4.17855e-07
-1.68354e-05
4.27059e-07
-1.69322e-05
4.34849e-07
-1.70285e-05
4.41692e-07
-1.71239e-05
4.46717e-07
-1.7218e-05
4.50586e-07
-1.73104e-05
4.52536e-07
-1.74008e-05
4.52492e-07
-1.74888e-05
4.50781e-07
-1.75739e-05
4.46306e-07
-1.76556e-05
4.39328e-07
-1.77335e-05
4.29888e-07
-1.78069e-05
4.17285e-07
-1.78753e-05
4.02136e-07
-1.79382e-05
3.83583e-07
-1.79949e-05
3.61925e-07
-1.80448e-05
3.37217e-07
-1.80873e-05
3.0893e-07
-1.81218e-05
2.76977e-07
-1.81477e-05
2.41932e-07
-1.81644e-05
2.0309e-07
-1.81713e-05
1.61114e-07
-1.81677e-05
1.15806e-07
-1.81532e-05
6.74049e-08
-1.81273e-05
1.55807e-08
-1.80894e-05
-3.8934e-08
-1.80392e-05
-9.55885e-08
-1.79762e-05
-1.54754e-07
-1.79002e-05
-2.15201e-07
-1.7811e-05
-2.77573e-07
-1.77083e-05
-3.40619e-07
-1.75923e-05
-4.03596e-07
-1.7463e-05
-4.66601e-07
-1.73203e-05
-5.30486e-07
-1.71647e-05
-5.92227e-07
-1.6996e-05
-6.55366e-07
-1.68154e-05
-7.1212e-07
-1.66222e-05
-7.73451e-07
-1.6418e-05
-8.26513e-07
-1.62031e-05
-8.7874e-07
-1.59787e-05
-9.25587e-07
-1.57458e-05
-9.68164e-07
-1.55053e-05
-1.00669e-06
-1.52581e-05
-1.04276e-06
-1.50058e-05
-1.07097e-06
-1.47495e-05
-1.09598e-06
-1.44908e-05
-1.11325e-06
-1.42302e-05
-1.13137e-06
-1.39708e-05
-1.13468e-06
-1.3717e-05
-1.11704e-06
-1.34712e-05
-1.09257e-06
-1.32427e-05
-1.01667e-06
-1.3034e-05
-9.40442e-07
-1.28602e-05
-7.78377e-07
-1.27333e-05
-5.52684e-07
-2.09827e-07
-1.36783e-05
-4.86365e-07
-1.36787e-05
3.0736e-08
-1.37264e-05
2.60776e-07
-1.38061e-05
4.78916e-07
-1.39107e-05
6.0168e-07
-1.40273e-05
6.22143e-07
-1.41538e-05
6.55062e-07
-1.42843e-05
6.44143e-07
-1.44159e-05
6.21902e-07
-1.45483e-05
5.97924e-07
-1.46805e-05
5.73288e-07
-1.48121e-05
5.44777e-07
-1.49426e-05
5.17986e-07
-1.50718e-05
4.93959e-07
-1.51992e-05
4.67519e-07
-1.53253e-05
4.49333e-07
-1.54491e-05
4.25114e-07
-1.55713e-05
4.09923e-07
-1.56919e-05
3.94771e-07
-1.58113e-05
3.85457e-07
-1.59296e-05
3.77476e-07
-1.60468e-05
3.70993e-07
-1.61629e-05
3.65493e-07
-1.62779e-05
3.62656e-07
-1.6392e-05
3.61026e-07
-1.65053e-05
3.61355e-07
-1.66177e-05
3.62823e-07
-1.67296e-05
3.66397e-07
-1.68409e-05
3.71117e-07
-1.69519e-05
3.77323e-07
-1.70625e-05
3.84571e-07
-1.71729e-05
3.93141e-07
-1.72831e-05
4.02483e-07
-1.73933e-05
4.12779e-07
-1.75035e-05
4.23644e-07
-1.76137e-05
4.34724e-07
-1.7724e-05
4.46698e-07
-1.78345e-05
4.58995e-07
-1.7945e-05
4.71518e-07
-1.80555e-05
4.836e-07
-1.8166e-05
4.95662e-07
-1.82763e-05
5.06893e-07
-1.83862e-05
5.1751e-07
-1.84956e-05
5.27213e-07
-1.86042e-05
5.35673e-07
-1.87118e-05
5.42461e-07
-1.88182e-05
5.48052e-07
-1.89229e-05
5.51434e-07
-1.90256e-05
5.53335e-07
-1.9126e-05
5.529e-07
-1.92235e-05
5.50035e-07
-1.93178e-05
5.45088e-07
-1.94084e-05
5.36855e-07
-1.94947e-05
5.25624e-07
-1.95762e-05
5.11413e-07
-1.96524e-05
4.93439e-07
-1.97226e-05
4.72379e-07
-1.97863e-05
4.4727e-07
-1.98428e-05
4.18437e-07
-1.98914e-05
3.85851e-07
-1.99316e-05
3.49095e-07
-1.99627e-05
3.08029e-07
-1.9984e-05
2.6326e-07
-1.9995e-05
2.14077e-07
-1.9995e-05
1.61124e-07
-1.99834e-05
1.04224e-07
-1.99597e-05
4.36742e-08
-1.99233e-05
-2.08081e-08
-1.98737e-05
-8.85145e-08
-1.98105e-05
-1.58773e-07
-1.97333e-05
-2.31977e-07
-1.96418e-05
-3.06684e-07
-1.95358e-05
-3.83626e-07
-1.94151e-05
-4.61308e-07
-1.92798e-05
-5.38869e-07
-1.913e-05
-6.16373e-07
-1.89657e-05
-6.94777e-07
-1.87873e-05
-7.70607e-07
-1.85949e-05
-8.47814e-07
-1.83894e-05
-9.17621e-07
-1.81705e-05
-9.9232e-07
-1.79396e-05
-1.05742e-06
-1.76973e-05
-1.12111e-06
-1.74446e-05
-1.17823e-06
-1.71828e-05
-1.22994e-06
-1.6913e-05
-1.27647e-06
-1.66363e-05
-1.3195e-06
-1.63544e-05
-1.35288e-06
-1.60685e-05
-1.38189e-06
-1.57803e-05
-1.40142e-06
-1.54908e-05
-1.42093e-06
-1.52029e-05
-1.42253e-06
-1.49215e-05
-1.39848e-06
-1.46496e-05
-1.36445e-06
-1.43966e-05
-1.2697e-06
-1.41659e-05
-1.17111e-06
-1.39731e-05
-9.71176e-07
-1.38318e-05
-6.94026e-07
-2.77535e-07
-1.47524e-05
-5.74395e-07
-1.47534e-05
3.17522e-08
-1.48067e-05
3.14098e-07
-1.48916e-05
5.63844e-07
-1.50038e-05
7.13871e-07
-1.51311e-05
7.49409e-07
-1.52699e-05
7.93861e-07
-1.54142e-05
7.88409e-07
-1.55608e-05
7.68515e-07
-1.57091e-05
7.46266e-07
-1.58582e-05
7.22349e-07
-1.60074e-05
6.93966e-07
-1.6156e-05
6.66628e-07
-1.6304e-05
6.41918e-07
-1.64505e-05
6.14033e-07
-1.6596e-05
5.94853e-07
-1.67396e-05
5.68704e-07
-1.6882e-05
5.52379e-07
-1.70233e-05
5.35986e-07
-1.71634e-05
5.25587e-07
-1.73025e-05
5.16546e-07
-1.74404e-05
5.08937e-07
-1.75771e-05
5.02218e-07
-1.77127e-05
4.98237e-07
-1.78471e-05
4.95437e-07
-1.79804e-05
4.94675e-07
-1.81127e-05
4.95075e-07
-1.82441e-05
4.97761e-07
-1.83745e-05
5.01594e-07
-1.85042e-05
5.06985e-07
-1.86331e-05
5.13474e-07
-1.87614e-05
5.21392e-07
-1.8889e-05
5.30111e-07
-1.90161e-05
5.39858e-07
-1.91426e-05
5.50205e-07
-1.92687e-05
5.60828e-07
-1.93944e-05
5.72343e-07
-1.95195e-05
5.84161e-07
-1.96442e-05
5.9618e-07
-1.97683e-05
6.07682e-07
-1.98917e-05
6.19076e-07
-2.00143e-05
6.29465e-07
-2.01358e-05
6.39071e-07
-2.02561e-05
6.47503e-07
-2.0375e-05
6.54512e-07
-2.04921e-05
6.59579e-07
-2.06072e-05
6.6317e-07
-2.07199e-05
6.6416e-07
-2.08299e-05
6.63311e-07
-2.09367e-05
6.5969e-07
-2.10398e-05
6.53189e-07
-2.11389e-05
6.44143e-07
-2.12333e-05
6.31291e-07
-2.13226e-05
6.14913e-07
-2.14062e-05
5.95016e-07
-2.14835e-05
5.70736e-07
-2.15539e-05
5.42808e-07
-2.16168e-05
5.10175e-07
-2.16716e-05
4.73168e-07
-2.17174e-05
4.31704e-07
-2.17538e-05
3.85439e-07
-2.178e-05
3.34207e-07
-2.17953e-05
2.78648e-07
-2.17993e-05
2.18018e-07
-2.17912e-05
1.52991e-07
-2.17703e-05
8.33953e-08
-2.17362e-05
9.58055e-09
-2.16883e-05
-6.86872e-08
-2.16261e-05
-1.5075e-07
-2.15491e-05
-2.35794e-07
-2.14569e-05
-3.24208e-07
-2.13492e-05
-4.14336e-07
-2.12259e-05
-5.06974e-07
-2.10868e-05
-6.00414e-07
-2.0932e-05
-6.93667e-07
-2.07616e-05
-7.86745e-07
-2.05757e-05
-8.80701e-07
-2.03746e-05
-9.71627e-07
-2.01587e-05
-1.06379e-06
-1.99287e-05
-1.14757e-06
-1.96846e-05
-1.23641e-06