/*--------------------------------*- C++ -*----------------------------------*\
| =========                 |                                                 |
| \\      /  F ield         | OpenFOAM: The Open Source CFD Toolbox           |
|  \\    /   O peration     | Version:  2.4.0                                 |
|   \\  /    A nd           | Web:      www.OpenFOAM.org                      |
|    \\/     M anipulation  |                                                 |
\*---------------------------------------------------------------------------*/
FoamFile
{
    version     2.0;
    format      ascii;
    class       volScalarField;
    location    "230";
    object      f;
}
// * * * * * * * * * * * * * * * * * * * * * * * * * * * * * * * * * * * * * //

dimensions      [0 0 -1 0 0 0 0];

internalField   nonuniform List<scalar> 
32000
(
0.19745184
0.065823596
0.13676818
0.049117653
0.031920804
0.010823022
0.013979644
0.0082214679
0.006821734
0.0047316252
0.0038996653
0.0032312944
0.0027707044
0.0023694821
0.002040047
0.0017601116
0.0015361069
0.0013689214
0.0012332809
0.0011123062
0.00099531054
0.00088145321
0.00076204062
0.00063383811
0.00049399278
0.00058972403
0.00070680798
0.00082614366
0.00094033392
0.0010391451
0.0011136024
0.0011555422
0.0011573956
0.0011157301
0.0010338441
0.00092220422
0.00079708089
0.00067222848
0.00055847626
0.00046275125
0.00039607501
0.0004568418
0.00050586476
0.0005476628
0.00058797792
0.00063041361
0.00068999569
0.00075118268
0.00078553241
0.00079995495
0.00079378928
0.00076843951
0.00072708935
0.00067312724
0.00060758245
0.00058649077
0.00067669526
0.00077121449
0.00087030857
0.00097098909
0.0010692175
0.001159923
0.001235344
0.0012857926
0.0012989098
0.0012642605
0.0011720033
0.0010229368
0.00082159768
0.00083460004
0.0010917494
0.0013222014
0.0015321919
0.0017113566
0.0018664009
0.0019979998
0.0021105693
0.0022095142
0.0023009674
0.002388197
0.0024691444
0.0025357803
0.0025739208
0.0025636114
0.0024819755
0.0022966249
0.0019781236
0.0015118407
0.00086530728
0.0010349685
0.0021464259
0.0035403553
0.0052243394
0.0071580554
0.0092130241
0.011125021
0.012481203
0.012830855
0.01193787
0.0099516194
0.0074620903
0.0051326874
0.0033711311
0.002213093
0.0014383828
0.001340684
0.001782596
0.001946591
0.0017605814
0.001312936
0.00095742881
0.001436488
0.0018701061
0.0022620315
0.0026322187
0.0029935891
0.003346138
0.0036801459
0.0039883903
0.0042712005
0.0045282458
0.0047534504
0.0049298892
0.0050325646
0.0050364768
0.0049239456
0.0046893446
0.0043397835
0.0038936811
0.0033759282
0.0028113855
0.0022230506
0.0016274244
0.0010387909
0.00094700749
0.0014765122
0.0019985578
0.0025111972
0.0030158988
0.0035156292
0.0040145894
0.0045180333
0.0050318004
0.0055619819
0.006114659
0.0066948638
0.0073065434
0.0079493598
0.008621658
0.0093002059
0.0099718299
0.01047468
0.010745781
0.0093339385
0.0073691412
0.0065631181
0.0059574429
0.0056027643
0.0054087404
0.0053344465
0.0053564824
0.0054750625
0.0056669356
0.0059216057
0.0062536206
0.0067251075
0.0073106731
0.0079341938
0.0085634429
0.0091699064
0.0097293093
0.010222123
0.010632125
0.0109031
0.010967674
0.010811853
0.01049373
0.010066107
0.009522852
0.0088801212
0.0081462666
0.0073175727
0.0063920113
0.0053654114
0.004175427
0.0027104948
0.00036062602
0.0030618249
0.0065368487
0.010842717
0.016655546
0.022469632
0.03231964
0.028012531
0.046239847
0.032667301
0.06424287
0.065624256
0.14886538
0.067238288
0.4508705
0.14846062
0.29076606
0.099780225
0.069673716
0.03254645
0.033010278
0.019177342
0.01432737
0.0098559146
0.0077991144
0.0063060818
0.0053072016
0.0045233868
0.0039199755
0.0034401941
0.0030707946
0.0027967662
0.0025769813
0.0023846126
0.0022048205
0.0020338915
0.0018612124
0.0016825282
0.0014942795
0.0015377754
0.0016061569
0.0016814816
0.0017587836
0.0018283528
0.0018809608
0.0019084882
0.0019034877
0.001862222
0.0017869957
0.0016865896
0.0015748639
0.0014621864
0.0013566963
0.0012646828
0.0011985723
0.0012563607
0.0013062394
0.0013548695
0.0014120309
0.0014878302
0.0016080863
0.0017357479
0.001814604
0.0018597973
0.0018754682
0.0018667895
0.0018392197
0.0017970164
0.0017421204
0.001730038
0.0018259081
0.0019260093
0.0020303158
0.002136414
0.0022410437
0.0023400561
0.0024268813
0.0024933543
0.0025289535
0.0025248729
0.0024721557
0.002371591
0.0022275299
0.0022956751
0.0025963617
0.0028553054
0.0030731495
0.0032395217
0.0033649264
0.0034561169
0.0035237653
0.0035782763
0.0036285251
0.0036784285
0.00372534
0.0037602336
0.0037679757
0.0037280464
0.0036174708
0.0034046108
0.0030613741
0.0025751833
0.0019231801
0.0020767281
0.0031613278
0.0045370553
0.0062078899
0.0081344359
0.01019127
0.012120727
0.013521698
0.013959581
0.013210297
0.011422255
0.0091631828
0.0070588109
0.0054761721
0.0044225455
0.0036736611
0.0035217524
0.0038559851
0.0039111247
0.0036352634
0.0031248745
0.002729434
0.0031661584
0.0035796098
0.0039663026
0.0043443451
0.0047261566
0.0051113139
0.0054887658
0.0058481778
0.0061846709
0.0064909635
0.0067530108
0.0069465571
0.0070420115
0.0070142007
0.0068500749
0.0065515902
0.006133502
0.0056198929
0.0050389782
0.0044170564
0.0037775516
0.0031372564
0.0025129705
0.002382343
0.0028655587
0.0033501594
0.003829345
0.00430317
0.0047735724
0.0052438309
0.0057183485
0.0062022206
0.0067009509
0.007220236
0.0077649889
0.0083393046
0.0089433506
0.0095760971
0.010215661
0.010849067
0.011318653
0.011554954
0.010150021
0.0082150427
0.0074183644
0.0068262028
0.006479992
0.0062902594
0.0062159244
0.0062338245
0.0063440949
0.0065241136
0.0067640542
0.0070792743
0.0075310743
0.0080946415
0.008695442
0.0093020844
0.0098868181
0.010425878
0.010899978
0.01129258
0.011547842
0.011599048
0.011432681
0.011106041
0.010671153
0.010121701
0.0094735082
0.0087346247
0.0079012548
0.0069714096
0.0059407447
0.0047481683
0.003281188
0.0010171399
0.0037387901
0.0072470855
0.011599628
0.01748229
0.023399613
0.033432484
0.029511906
0.049489773
0.037176593
0.09010539
0.1101119
0.31355539
0.15775434
0.66751806
0.22469651
0.4130095
0.14327636
0.10299459
0.055448329
0.052841894
0.030830764
0.022265021
0.015290301
0.011926743
0.0095611721
0.007991085
0.0068019345
0.0059081139
0.0052165087
0.0046929307
0.0043055246
0.0039964537
0.0037283843
0.0034820506
0.0032506854
0.0030216321
0.0027895471
0.0025501136
0.00253852
0.0025554773
0.0025843618
0.0026227476
0.0026614793
0.0026910632
0.002703426
0.0026912569
0.0026505108
0.0025824519
0.0024940663
0.0023966493
0.0022969901
0.0022003696
0.002112367
0.002046861
0.0021015201
0.0021522177
0.0022079632
0.0022828102
0.0023936894
0.0025773094
0.0027741805
0.0028995243
0.0029768014
0.0030151567
0.0030237326
0.0030103915
0.0029803045
0.0029363535
0.0029334984
0.0030351463
0.0031409196
0.0032505249
0.0033621566
0.0034733783
0.0035810176
0.0036797659
0.0037630717
0.0038223574
0.0038505422
0.0038396007
0.0037903128
0.0037067335
0.0038332007
0.0041800414
0.0044690872
0.0046951614
0.0048478754
0.0049417737
0.0049900511
0.0050100121
0.0050173605
0.0050238779
0.0050341677
0.0050449589
0.0050461681
0.0050216544
0.004950295
0.0048090115
0.0045669539
0.0041974466
0.0036900995
0.0030318481
0.0031682637
0.004224731
0.0055812834
0.0072383351
0.0091574805
0.011216537
0.013164775
0.014613454
0.01514494
0.014547833
0.012969516
0.010954292
0.0090881322
0.007695015
0.0067520795
0.0060304262
0.0058211247
0.0060415769
0.005981384
0.0056102382
0.0050331774
0.0045951183
0.0049873533
0.0053794896
0.0057606901
0.0061471177
0.0065506623
0.0069704571
0.0073940348
0.007807762
0.0082012429
0.0085598312
0.0088610354
0.0090728246
0.0091607303
0.0090993865
0.0088806462
0.0085145035
0.0080238218
0.0074386932
0.0067908637
0.0061081602
0.0054144626
0.0047268692
0.0040646927
0.0038929848
0.0043275549
0.0047726652
0.0052165995
0.0056579145
0.0060974596
0.0065375368
0.0069816487
0.0074341033
0.0078997835
0.0083839796
0.0088914801
0.0094265397
0.0099898626
0.010581091
0.011179764
0.011773179
0.01220804
0.012408569
0.011011605
0.0091086057
0.0083225397
0.0077448756
0.0074077702
0.007222631
0.0071482475
0.0071617152
0.0072631041
0.0074304661
0.0076546845
0.0079519437
0.0083826927
0.0089227589
0.0094992957
0.010081802
0.010643329
0.011160639
0.011614693
0.01198863
0.012227024
0.012263867
0.012086137
0.011750283
0.011307499
0.010751268
0.010097056
0.0093525843
0.0085139584
0.0075791903
0.0065436621
0.0053474726
0.0038780102
0.0017021206
0.0044441365
0.0079852851
0.012384436
0.018334304
0.024359403
0.034554868
0.031085484
0.052591026
0.041855583
0.11134118
0.14651634
0.44489211
0.24198095
0.8644274
0.29661884
0.51545119
0.18121663
0.13280031
0.079556787
0.073547454
0.043225849
0.030664758
0.021055292
0.016297397
0.013007991
0.010831525
0.0092127522
0.0080109915
0.0070947912
0.0064076727
0.0058999256
0.0054960947
0.0051477467
0.0048308962
0.004535528
0.0042468101
0.0039582364
0.0036646774
0.003594973
0.003557614
0.0035374751
0.0035347867
0.003540982
0.003546291
0.0035426896
0.003523019
0.0034829256
0.0034225851
0.0033470723
0.0032649513
0.003179227
0.0030921417
0.0030084829
0.0029436299
0.0029950061
0.0030464811
0.0031096373
0.0032030544
0.0033508203
0.0036006133
0.0038695402
0.0040434457
0.0041541853
0.0042161136
0.004242555
0.0042439113
0.0042263142
0.0041936156
0.004200213
0.0043077579
0.0044192968
0.0045342908
0.0046515774
0.004769592
0.0048861964
0.0049974173
0.005098412
0.0051826603
0.0052449091
0.0052781131
0.0052830432
0.0052633345
0.0054514972
0.0058472813
0.0061681391
0.0064028417
0.0065409756
0.0066013832
0.0066040872
0.0065734247
0.0065307162
0.0064908236
0.0064590769
0.0064315413
0.0063970118
0.0063382783
0.0062335765
0.0060597188
0.0057866824
0.0053892855
0.0048594655
0.0041941168
0.004312328
0.005339352
0.0066757171
0.0083183293
0.010229839
0.012291499
0.014259907
0.015759364
0.01639011
0.015954127
0.014597705
0.012840514
0.011226554
0.010034237
0.0092086887
0.0085157652
0.0082457078
0.0083459381
0.0081635474
0.0076913497
0.0070434311
0.0065598753
0.0069053611
0.0072749645
0.0076503955
0.0080457686
0.0084724168
0.0089290019
0.009401552
0.0098729351
0.010326913
0.010741034
0.011083852
0.011315089
0.011395096
0.011298293
0.011021727
0.010583913
0.010016316
0.0093554041
0.0086366733
0.0078895739
0.0071384725
0.0064007866
0.0056983267
0.0054831644
0.0058666147
0.006270072
0.0066768534
0.0070839313
0.0074910021
0.0078993334
0.0083114755
0.0087309031
0.0091618422
0.0096091552
0.0100775
0.010571303
0.011091839
0.011639472
0.012195244
0.012746803
0.013145411
0.013309208
0.011921332
0.010052583
0.0092785074
0.0087163745
0.0083890355
0.008208786
0.0081343148
0.0081429965
0.0082348527
0.0083886559
0.0085960399
0.0088740311
0.0092822013
0.0097970881
0.010347639
0.010904304
0.011440976
0.011934974
0.012367503
0.012721384
0.012941649
0.012963062
0.012773106
0.012427309
0.011975973
0.011412369
0.010751575
0.010000956
0.0091564976
0.0082161708
0.0071749797
0.005974166
0.0045019261
0.0024167181
0.0051787816
0.0087520518
0.01319738
0.019211458
0.025348335
0.03568668
0.032731145
0.05555877
0.046691751
0.1288297
0.17661338
0.55524121
0.3222041
1.0519053
0.36588957
0.60559206
0.21489749
0.15985509
0.10490533
0.095206969
0.056410105
0.039559531
0.027173197
0.02092729
0.016659
0.013838528
0.011764154
0.010235717
0.0090812739
0.0082206121
0.0075850858
0.0070806525
0.0066471478
0.0062555503
0.005892389
0.0055405128
0.0051921745
0.0048413709
0.0047103645
0.004615624
0.0045437212
0.0044976674
0.0044695214
0.0044492252
0.004428807
0.0044012782
0.0043619775
0.0043099444
0.0042482197
0.0041824574
0.0041116592
0.0040348347
0.0039558883
0.003891747
0.0039396855
0.0039918915
0.0040627664
0.0041756858
0.0043622414
0.0046811443
0.0050250938
0.0052497348
0.0053953871
0.005481822
0.0055267703
0.0055433169
0.0055386024
0.005517477
0.0055337607
0.0056473314
0.0057647346
0.005885212
0.006008282
0.0061333024
0.0062592306
0.0063835066
0.0065030978
0.0066136614
0.0067118815
0.0067917435
0.00685401
0.006901757
0.0071551962
0.0076028992
0.0079573854
0.0082011384
0.0083237104
0.008348518
0.0083028226
0.0082184204
0.0081225854
0.0080334442
0.0079570953
0.0078888984
0.0078164584
0.0077214309
0.0075813681
0.0073729683
0.0070670766
0.0066400858
0.0060864071
0.0054130378
0.0055119201
0.0065081558
0.0078232824
0.009450775
0.011354408
0.013419073
0.015409105
0.016962558
0.017698511
0.01743308
0.016311414
0.014827279
0.013480374
0.012500866
0.011799856
0.011137266
0.010802902
0.010776109
0.010464244
0.0098848717
0.0091616343
0.0086294964
0.0089258613
0.0092716393
0.0096410038
0.010045915
0.010497119
0.010992778
0.011517321
0.012049906
0.012568106
0.013041196
0.013428239
0.013680202
0.013751934
0.01361762
0.013279809
0.012766055
0.012116947
0.011375721
0.010581853
0.0097665179
0.008954601
0.0081638516
0.0074185488
0.0071574101
0.0074871419
0.0078466578
0.0082142732
0.0085852852
0.0089581691
0.0093330978
0.0097116132
0.010096308
0.010490715
0.010899243
0.011326413
0.01177684
0.012252401
0.01275424
0.013264982
0.013772718
0.014133468
0.014259584
0.012881971
0.011049861
0.01028928
0.0097437764
0.0094269026
0.009251848
0.0091772336
0.0091807359
0.0092623474
0.0094016114
0.0095909552
0.0098482608
0.0102322
0.010720099
0.011242812
0.011771807
0.01228186
0.012750872
0.013160298
0.013492639
0.013693443
0.013698299
0.013495207
0.013138696
0.012678116
0.012106511
0.011438539
0.010681177
0.0098302703
0.0088837
0.0078359795
0.0066294567
0.0051541862
0.0031621827
0.0059439406
0.0095485218
0.014039464
0.020114673
0.02636686
0.036829505
0.034448
0.058413373
0.051675654
0.14329641
0.20181861
0.65269907
0.40019795
1.2366781
0.43374678
0.68828616
0.24532435
0.18478904
0.13153354
0.1179073
0.070434667
0.048985338
0.033668219
0.025834032
0.020527684
0.017022903
0.014465104
0.012589942
0.011182655
0.01013775
0.0093664908
0.0087552146
0.0082313507
0.0077605015
0.0073255168
0.0069067712
0.0064951907
0.0060838322
0.0058881514
0.0057327781
0.0056062007
0.0055143456
0.0054499378
0.005402619
0.0053644726
0.0053287007
0.005290339
0.0052472425
0.0052002873
0.0051520283
0.005097229
0.0050314575
0.0049576324
0.0048942734
0.0049386187
0.0049915042
0.0050704191
0.0052038239
0.005431174
0.0058222618
0.0062443314
0.0065219881
0.0067040815
0.0068160064
0.006880138
0.0069123953
0.0069209783
0.0069117628
0.0069379778
0.0070577148
0.0071810881
0.0073071503
0.007436141
0.0075683941
0.0077040274
0.0078419769
0.0079811272
0.0081194405
0.0082556548
0.0083848394
0.0085077493
0.0086267464
0.0089492653
0.0094520627
0.0098421081
0.010095359
0.010201323
0.010188287
0.01009119
0.0099497399
0.0097975231
0.009656126
0.0095324594
0.0094211326
0.009308488
0.0091749776
0.0089974263
0.0087524124
0.0084116918
0.0079533166
0.0073743237
0.0066919344
0.0067703091
0.0077343775
0.0090271703
0.010638829
0.012534325
0.014602393
0.016615548
0.018226338
0.019073721
0.018988772
0.018115459
0.016920324
0.015856286
0.015102402
0.014533584
0.013903055
0.013500636
0.013339642
0.01289059
0.012197542
0.01139423
0.010810201
0.011054954
0.011375533
0.01173851
0.012153582
0.012630879
0.013168033
0.013747772
0.014345321
0.014931697
0.015467406
0.015901442
0.016175487
0.01623854
0.016064528
0.015661833
0.015067598
0.014332095
0.013505739
0.012632233
0.011744581
0.010868223
0.010021248
0.0092303616
0.008920564
0.009193843
0.0095069916
0.0098333036
0.010166306
0.010503183
0.010842946
0.01118607
0.011534215
0.011890178
0.012257892
0.012641734
0.013046518
0.013474766
0.013928458
0.014391892
0.014853712
0.015174899
0.015262388
0.013896271
0.012103323
0.011357896
0.010830207
0.010524552
0.010355019
0.010280198
0.010278092
0.010348689
0.010472355
0.010642358
0.010877446
0.011235372
0.011694338
0.012187227
0.012686593
0.013168144
0.013610385
0.013995027
0.014304259
0.014484196
0.014471317
0.014254136
0.013886105
0.013415558
0.01283529
0.012159513
0.011394779
0.010536769
0.0095832204
0.0085280358
0.0073146498
0.0058361509
0.0039398775
0.006740959
0.010375994
0.014911928
0.021045347
0.027416299
0.037987261
0.036237009
0.061180109
0.056801103
0.15535504
0.22323058
0.74252486
0.47728731
1.4235615
0.50116559
0.7669263
0.27327312
0.20811309
0.15948776
0.14174206
0.085354653
0.058981463
0.040566616
0.031036757
0.024628655
0.020396348
0.017325287
0.01508192
0.013406147
0.012165539
0.011250033
0.010525241
0.0099054653
0.0093505633
0.0088394659
0.0083499053
0.0078713888
0.00739596
0.0071320389
0.0069125811
0.0067282341
0.0065879852
0.0064852686
0.0064094133
0.0063525612
0.0063081282
0.0062708547
0.0062373642
0.0062062308
0.0061767077
0.0061390692
0.0060852162
0.0060169651
0.0059544724
0.0059950684
0.0060485756
0.0061358651
0.0062907922
0.0065610494
0.0070275458
0.0075309744
0.0078640415
0.0080841894
0.0082226427
0.008306673
0.0083551932
0.008377514
0.008380564
0.0084169688
0.0085430272
0.0086724856
0.0088042425
0.0089393016
0.0090790303
0.0092247749
0.009377055
0.0095367863
0.0097043706
0.0098807252
0.010062059
0.01024912
0.010443384
0.010839024
0.011400307
0.011827965
0.012091187
0.012179427
0.012126162
0.011974472
0.011772461
0.01156041
0.011363572
0.011189714
0.011032649
0.010877379
0.010703079
0.010485799
0.010201994
0.0098243742
0.0093327387
0.0087269067
0.0080344183
0.0080910491
0.0090215302
0.010290833
0.011885882
0.013772914
0.015844732
0.017882488
0.01955403
0.02051932
0.020625306
0.020014757
0.019125605
0.018361336
0.017846811
0.017418414
0.016821822
0.016347401
0.016044628
0.015450214
0.014636588
0.01374813
0.013108659
0.013299178
0.013593095
0.013949334
0.014375218
0.014880231
0.015461441
0.01609977
0.016766273
0.017425018
0.018027219
0.01851119
0.018808753
0.018862696
0.018646657
0.018175205
0.017495662
0.016668572
0.015751971
0.014794044
0.013829739
0.01288508
0.011978511
0.0111391
0.010777783
0.010991726
0.011255927
0.011538658
0.011831579
0.012130503
0.012433217
0.012739063
0.013048713
0.013364188
0.013688916
0.014027126
0.014383848
0.01476229
0.015165335
0.015579051
0.015992764
0.016272639
0.016320632
0.014967377
0.01321629
0.012487829
0.011979184
0.011685506
0.011521777
0.011446603
0.011438335
0.011496977
0.011603771
0.011753031
0.011964288
0.012294318
0.012722297
0.013183268
0.013650946
0.014102017
0.014515618
0.014873719
0.015158205
0.015315821
0.01528399
0.015051738
0.014671351
0.014190086
0.013600468
0.012916224
0.01214345
0.011277635
0.010316315
0.009252655
0.0080311782
0.0065493208
0.004751305
0.0075713502
0.011235998
0.015816348
0.022005441
0.028498709
0.039165209
0.03809996
0.063886851
0.062065397
0.16551196
0.24168851
0.82837583
0.55452367
1.6162367
0.5689445
0.84400554
0.29935185
0.23024156
0.18882196
0.16681179
0.10122955
0.069590735
0.047896904
0.036556269
0.028977757
0.023971533
0.020355169
0.017720558
0.015759523
0.014310923
0.013242048
0.012396598
0.011674977
0.011030901
0.010439122
0.0098745493
0.0093251701
0.0087819349
0.0084459999
0.0081587901
0.0079133791
0.0077219719
0.0075787595
0.0074727473
0.0073961388
0.0073425884
0.0073065527
0.0072833781
0.0072691915
0.0072597279
0.0072405037
0.0071995086
0.0071373272
0.0070757943
0.007112479
0.0071665383
0.0072625457
0.0074400848
0.0077554734
0.0083007618
0.0088889404
0.0092799336
0.0095398409
0.0097059206
0.009810608
0.0098759783
0.0099125061
0.0099281982
0.0099750669
0.010107619
0.010243289
0.010380861
0.01052215
0.010669616
0.010825906
0.010993217
0.011174615
0.011373084
0.011591856
0.011828336
0.012083266
0.012357049
0.012830105
0.013453498
0.013920957
0.014194657
0.014263989
0.014167959
0.01395829
0.013691994
0.013416452
0.013160802
0.012933719
0.012728161
0.012527712
0.012310192
0.012050827
0.011725939
0.011309243
0.010782377
0.010148106
0.009444363
0.0094779794
0.010373467
0.011618157
0.013195909
0.015074306
0.01715044
0.019214561
0.02095061
0.022040672
0.022348506
0.022015696
0.02145021
0.021003406
0.020742719
0.020463479
0.019902819
0.019352228
0.018899674
0.018151234
0.017209702
0.016230694
0.015531983
0.015665523
0.015931233
0.016280368
0.016717763
0.017252222
0.017880219
0.018580753
0.019320456
0.020056038
0.020728852
0.021265883
0.021588484
0.021632838
0.021372266
0.020827904
0.020057881
0.019133651
0.018121338
0.01707389
0.016028311
0.015011251
0.014041511
0.013150442
0.012734586
0.012886186
0.013098741
0.013335512
0.013586192
0.013845145
0.014108857
0.014375474
0.014644624
0.014917505
0.015197015
0.015487227
0.015793407
0.016119491
0.016469336
0.016830877
0.017194244
0.017430995
0.017438586
0.016099438
0.014392846
0.013683208
0.013194854
0.012913921
0.012756281
0.012680594
0.012665586
0.012711306
0.012799927
0.012926866
0.01311243
0.013412409
0.013807064
0.014233728
0.014667359
0.015085676
0.015468483
0.015798142
0.016056255
0.016190107
0.016138126
0.015889844
0.015496279
0.015003552
0.01440389
0.013710504
0.012928997
0.012054638
0.011084697
0.010011473
0.0087806104
0.0072953498
0.0055981279
0.0084368158
0.012130298
0.016754599
0.022997356
0.029616654
0.040369485
0.040039228
0.066562653
0.067470092
0.17418222
0.25783524
0.91293381
0.63277728
1.8160505
0.63773398
0.90381951
0.32403642
0.25151361
0.21959863
0.19322423
0.11812364
0.080859834
0.055690078
0.042415201
0.033592189
0.02776219
0.023566079
0.020515479
0.018251165
0.016581381
0.01534935
0.014375589
0.013545777
0.012807059
0.012129729
0.011485673
0.010861253
0.010246236
0.0098342901
0.0094754271
0.0091654396
0.0089199221
0.0087338745
0.0085959645
0.0084984606
0.0084352845
0.0084006231
0.0083885018
0.0083924469
0.008404445
0.0084049653
0.0083778223
0.008322224
0.0082617223
0.0082942924
0.0083487856
0.0084538308
0.0086551012
0.0090179457
0.0096455694
0.010322042
0.010773599
0.011075064
0.011269928
0.011396075
0.011478919
0.011530152
0.011558885
0.011616508
0.011755744
0.011897764
0.012041283
0.012188975
0.012344459
0.012511759
0.012694844
0.012899059
0.013130124
0.013393725
0.013688527
0.014015268
0.014373068
0.014928104
0.015617482
0.016127072
0.016411792
0.016460953
0.016319466
0.016048221
0.015713691
0.015370785
0.01505276
0.014769246
0.014512294
0.01426398
0.014000685
0.013696759
0.013328389
0.012870339
0.012306188
0.011641815
0.010925588
0.010934886
0.01179398
0.013012937
0.014572733
0.016442381
0.018523492
0.020615882
0.022420398
0.023642415
0.024163511
0.024124132
0.023900906
0.023790268
0.023798803
0.023678053
0.023155484
0.022524335
0.021913561
0.021001923
0.019924709
0.018849395
0.018087375
0.018161054
0.018396919
0.018738558
0.019188202
0.019753945
0.020431627
0.021198205
0.022015619
0.02283278
0.023580585
0.024173993
0.024523235
0.024557469
0.024249669
0.023627946
0.022761913
0.021734617
0.02062077
0.019478371
0.018346609
0.017252791
0.016216078
0.015270011
0.014796417
0.014882533
0.015040599
0.015228907
0.015435077
0.015651939
0.015874602
0.016099947
0.016326495
0.016554577
0.016786531
0.017026271
0.017279317
0.017550381
0.017844362
0.018151164
0.018461858
0.018653596
0.018619871
0.017296059
0.015636643
0.0149478
0.014481038
0.014213671
0.014062433
0.013986084
0.013963745
0.01399554
0.014064636
0.014167607
0.014325541
0.014593235
0.014952156
0.015342068
0.015739254
0.016122517
0.016472362
0.016771551
0.01700142
0.017109857
0.017036347
0.016770908
0.016363192
0.015858128
0.015247617
0.014544317
0.013753304
0.012869627
0.011890188
0.010806252
0.0095646601
0.0080760647
0.0064821928
0.0093392674
0.013060905
0.017728847
0.024023882
0.030773102
0.041606831
0.042057715
0.069237528
0.0730215
0.18170713
0.27216684
0.99742246
0.71275692
1.9323863
0.69833899
0.96379136
0.34771331
0.27221023
0.25188983
0.22109461
0.13610647
0.092839619
0.063979853
0.048638196
0.038490633
0.031783221
0.026970286
0.02347709
0.020890126
0.018984975
0.017579273
0.01646899
0.01552419
0.01468498
0.013916897
0.013188588
0.012484671
0.011793636
0.011301435
0.010866758
0.010488436
0.010185641
0.0099542353
0.0097825344
0.0096628723
0.0095894671
0.009556253
0.0095558878
0.0095791299
0.0096139668
0.0096355106
0.0096231134
0.0095744448
0.0095148162
0.0095428075
0.009597348
0.009711526
0.0099375104
0.010350121
0.01106371
0.011832103
0.012346938
0.012691818
0.01291666
0.013065089
0.013166048
0.013232498
0.013274676
0.013343345
0.01348946
0.013637968
0.013787566
0.013941839
0.01410563
0.014284423
0.014484061
0.0147123
0.014977754
0.015288722
0.01564519
0.016047893
0.016494449
0.017136297
0.017895788
0.018449983
0.018746294
0.018773945
0.018584142
0.018247512
0.017840571
0.017426215
0.017042065
0.016698754
0.016387369
0.016088385
0.01577666
0.015425608
0.015011277
0.014509535
0.013906001
0.013209844
0.012479872
0.012463567
0.013284918
0.014477065
0.016018296
0.017879138
0.019965945
0.02208857
0.023965591
0.025326908
0.026073033
0.026343377
0.026481879
0.026727146
0.027021282
0.027069069
0.026587013
0.025870773
0.025092956
0.024008469
0.02278737
0.021609634
0.02077995
0.020790731
0.020995006
0.021328717
0.021791382
0.022390344
0.023120776
0.02395746
0.02485736
0.025761119
0.026588541
0.027241818
0.027619365
0.027642864
0.027284917
0.026581052
0.025613097
0.024476416
0.023254842
0.022011735
0.020788589
0.019613408
0.018505706
0.017501093
0.016966397
0.016983759
0.017084368
0.017221598
0.017380893
0.017553457
0.017732944
0.017914893
0.018096659
0.018277656
0.018459636
0.018646348
0.018843588
0.019056894
0.019292288
0.019541742
0.019797412
0.019942247
0.019866368
0.018559116
0.016949532
0.016283566
0.015839848
0.015587068
0.01544277
0.015365829
0.015335764
0.015352787
0.015401112
0.01547853
0.015606903
0.015840045
0.016160766
0.016511413
0.016869689
0.017215536
0.017530189
0.017796829
0.017996534
0.018077862
0.017981406
0.017697645
0.017274757
0.016756428
0.016134198
0.015420139
0.014618764
0.013724868
0.012734908
0.011638978
0.010385235
0.0088934909
0.0074055546
0.010280864
0.014030132
0.018741645
0.02508836
0.031971808
0.042885237
0.044160415
0.071941209
0.078728769
0.18836855
0.28504675
0.99360119
0.77059887
1.9830399
0.71736638
0.95924186
0.36671545
0.29256117
0.28577818
0.25054604
0.15525333
0.10558541
0.072802913
0.055252079
0.043693397
0.036050794
0.030581079
0.026616639
0.023686163
0.021530371
0.01993968
0.01868404
0.017616947
0.016670966
0.015806551
0.014988873
0.014200679
0.013429073
0.012852077
0.012337112
0.01188639
0.011522857
0.011243297
0.011035645
0.010892291
0.010807767
0.010775751
0.010787464
0.010830682
0.010889105
0.010932163
0.010934448
0.010891939
0.010831794
0.010853477
0.010906441
0.011028736
0.011279487
0.011743471
0.012546036
0.013409361
0.013989837
0.014379703
0.014635478
0.014806806
0.014926335
0.015008348
0.015064223
0.015144088
0.015297149
0.015452165
0.015607866
0.0157688
0.015941103
0.016131795
0.016348695
0.016602106
0.016903699
0.017264554
0.017686041
0.018168905
0.018709025
0.019442632
0.020276511
0.02087787
0.021186348
0.021191076
0.020949971
0.020543995
0.020060319
0.019570306
0.019116192
0.01870967
0.018340799
0.017988367
0.017625617
0.01722498
0.016762366
0.016214797
0.01557004
0.014840732
0.014096025
0.014053218
0.01483587
0.016000478
0.01752283
0.019374995
0.021468215
0.023622763
0.025575729
0.027082818
0.028064884
0.028660635
0.02918026
0.029801731
0.030398853
0.030626336
0.030188041
0.029382639
0.028429144
0.02716216
0.025788824
0.0245023
0.023600306
0.023544953
0.023715726
0.024040992
0.024517437
0.025151609
0.02593796
0.026848957
0.027836284
0.02883182
0.029743592
0.030460237
0.030867627
0.030879507
0.030468102
0.029676867
0.028600645
0.027347891
0.026012105
0.024662311
0.02334243
0.022081179
0.020898407
0.019831659
0.019232495
0.019177884
0.019218116
0.019301727
0.019411873
0.019538044
0.019672351
0.019808924
0.019943887
0.020075695
0.020205494
0.020336869
0.020475929
0.020629095
0.020803598
0.020993583
0.021192439
0.021289069
0.021170795
0.019881395
0.018323836
0.017682823
0.017264034
0.017027666
0.016891923
0.016815694
0.016778793
0.016781432
0.016808844
0.016860043
0.016957643
0.017154482
0.017434878
0.017743962
0.018060993
0.018367136
0.018644408
0.018876432
0.019044057
0.019096583
0.018975763
0.018672514
0.018233425
0.01770089
0.017066048
0.016340356
0.015527719
0.014622649
0.013621075
0.012511784
0.011244417
0.00974986
0.0083704923
0.011264041
0.015040646
0.019795985
0.026194648
0.03321699
0.044212785
0.046352326
0.074701874
0.084603543
0.19440056
0.29678095
0.98686314
0.78606732
1.9809753
0.73570566
0.95346321
0.38493642
0.31275895
0.32135679
0.2817095
0.17564555
0.11915721
0.082199076
0.06228597
0.049222473
0.040582385
0.034412777
0.029946202
0.026649703
0.024226772
0.022438848
0.021028281
0.019830971
0.018771389
0.017804553
0.0168919
0.016014168
0.015156958
0.014490147
0.013889905
0.01336217
0.012933843
0.012602659
0.012356109
0.012186574
0.012088848
0.012056285
0.012078521
0.012140092
0.012220206
0.012282532
0.012296823
0.012257401
0.01219343
0.012205515
0.012253908
0.012381937
0.012655867
0.013170551
0.014061292
0.015018493
0.015664288
0.01609855
0.016384429
0.016577718
0.016714894
0.016811575
0.016880276
0.016970459
0.017129584
0.017290263
0.017451303
0.017618249
0.017798576
0.018000907
0.018235116
0.018514158
0.018852902
0.019265397
0.019754464
0.02032088
0.020958593
0.021788226
0.022700294
0.023351063
0.023672065
0.023652337
0.023356918
0.022877704
0.02231313
0.021743487
0.021215871
0.020743089
0.020314134
0.019906052
0.019490395
0.019038587
0.018526417
0.01793212
0.017245712
0.016483467
0.01572456
0.015656055
0.016400717
0.017538567
0.019042946
0.020887246
0.02298741
0.025174106
0.027203332
0.028857831
0.030081072
0.03101229
0.031928161
0.032944188
0.033862239
0.034282977
0.033894759
0.032999154
0.031864063
0.030407012
0.028874249
0.027472885
0.026493734
0.026368694
0.026503723
0.026819786
0.027310614
0.027981868
0.028827177
0.029816522
0.030895982
0.031988138
0.03298851
0.033771355
0.034209296
0.034207716
0.033738614
0.032854056
0.031662807
0.030287214
0.028830948
0.027368928
0.025947557
0.024596208
0.023335029
0.022203337
0.021537187
0.021408313
0.021386198
0.02141464
0.021474402
0.021553171
0.021641444
0.021731879
0.021819328
0.021901273
0.021978256
0.022053739
0.022134199
0.022227019
0.022340731
0.022471737
0.02261475
0.022664637
0.022506288
0.02123742
0.019733991
0.019119785
0.0187278
0.018509917
0.01838502
0.018312058
0.01827116
0.018262408
0.018271862
0.018299473
0.018368292
0.01852989
0.018770068
0.019036985
0.019311696
0.01957677
0.019815144
0.020010978
0.020144965
0.020167265
0.020020884
0.019697165
0.019241006
0.018693453