/*--------------------------------*- C++ -*----------------------------------*\
| =========                 |                                                 |
| \\      /  F ield         | OpenFOAM: The Open Source CFD Toolbox           |
|  \\    /   O peration     | Version:  2.4.0                                 |
|   \\  /    A nd           | Web:      www.OpenFOAM.org                      |
|    \\/     M anipulation  |                                                 |
\*---------------------------------------------------------------------------*/
FoamFile
{
    version     2.0;
    format      ascii;
    class       volScalarField;
    location    "230";
    object      nut;
}
// * * * * * * * * * * * * * * * * * * * * * * * * * * * * * * * * * * * * * //

dimensions      [0 2 -1 0 0 0 0];

internalField   nonuniform List<scalar> 
32000
(
4.468663e-07
1.2429661e-07
4.7971742e-07
4.8968604e-08
2.0127893e-08
3.7473648e-09
4.3523309e-09
1.7064293e-09
1.603224e-09
1.0886182e-09
8.9737236e-10
7.2359729e-10
6.1535926e-10
5.3413562e-10
4.7585073e-10
4.3281982e-10
4.0175639e-10
3.8007606e-10
3.6340121e-10
3.4954944e-10
3.3756642e-10
3.2696013e-10
3.1726546e-10
3.0822138e-10
2.9946451e-10
2.9081097e-10
2.8176595e-10
2.7274429e-10
2.644874e-10
2.5720122e-10
2.5087536e-10
2.4546347e-10
2.4093347e-10
2.3726051e-10
2.3451067e-10
2.3284639e-10
2.3221293e-10
2.3213349e-10
2.3240966e-10
2.3303169e-10
2.3402689e-10
2.3546193e-10
2.3750307e-10
2.4041372e-10
2.4479831e-10
2.5178624e-10
2.6655989e-10
2.8490573e-10
2.9751569e-10
3.0796943e-10
3.169202e-10
3.2486508e-10
3.3198549e-10
3.3843817e-10
3.4432197e-10
3.4971592e-10
3.5468064e-10
3.5926548e-10
3.635106e-10
3.6745035e-10
3.7111391e-10
3.7452631e-10
3.7770912e-10
3.8068145e-10
3.8346008e-10
3.8605982e-10
3.88494e-10
3.9077461e-10
3.9291209e-10
3.949161e-10
3.9679537e-10
3.9855788e-10
4.0021071e-10
4.017606e-10
4.0321357e-10
4.0457527e-10
4.0585161e-10
4.0704747e-10
4.0816925e-10
4.0922061e-10
4.1020738e-10
4.1112915e-10
4.1198423e-10
4.1277686e-10
4.1350913e-10
4.1418486e-10
4.148063e-10
4.1535956e-10
4.1582566e-10
4.1637129e-10
4.167975e-10
4.1717646e-10
4.1750955e-10
4.1779773e-10
4.180419e-10
4.182431e-10
4.1840196e-10
4.1851903e-10
4.1859466e-10
4.1862898e-10
4.1862302e-10
4.1857566e-10
4.1848668e-10
4.1835674e-10
4.1818506e-10
4.1797121e-10
4.1771445e-10
4.1741415e-10
4.170694e-10
4.1667915e-10
4.1624227e-10
4.1575742e-10
4.1522318e-10
4.146379e-10
4.139998e-10
4.1330691e-10
4.12557e-10
4.1174778e-10
4.1087655e-10
4.0994053e-10
4.0893667e-10
4.0786154e-10
4.0671142e-10
4.0548248e-10
4.0417016e-10
4.0276983e-10
4.0127632e-10
3.9968381e-10
3.979863e-10
3.9617696e-10
3.9424823e-10
3.9219209e-10
3.8999963e-10
3.8766075e-10
3.8516458e-10
3.8249894e-10
3.7964998e-10
3.7660267e-10
3.7333974e-10
3.6984178e-10
3.6608662e-10
3.6204898e-10
3.5769924e-10
3.5300281e-10
3.4791885e-10
3.4239779e-10
3.3637902e-10
3.2978351e-10
3.2251247e-10
3.1441027e-10
3.0529705e-10
2.9467841e-10
2.8191258e-10
2.6346068e-10
2.4856695e-10
2.4140348e-10
2.3678267e-10
2.3359185e-10
2.312971e-10
2.2955843e-10
2.2819462e-10
2.2725709e-10
2.2666554e-10
2.2644275e-10
2.2669456e-10
2.2782274e-10
2.3006983e-10
2.3316483e-10
2.3704198e-10
2.4172019e-10
2.4720529e-10
2.5354033e-10
2.6069914e-10
2.6847611e-10
2.7611048e-10
2.8323557e-10
2.8991249e-10
2.9696293e-10
3.0424828e-10
3.1205932e-10
3.2072573e-10
3.3063304e-10
3.4250402e-10
3.5835392e-10
3.8156756e-10
4.138505e-10
4.5758066e-10
5.1605651e-10
5.9749045e-10
7.0410307e-10
8.7684584e-10
1.0543546e-09
1.5406817e-09
1.5107186e-09
3.7041803e-09
2.5822458e-09
1.5425781e-08
2.8739239e-08
1.6761992e-07
1.49051e-07
2.1397727e-07
1.1550478e-07
2.1170182e-07
6.4766912e-08
2.5315859e-08
3.6512949e-09
7.1200911e-09
3.7221411e-09
2.9631005e-09
2.141008e-09
1.7113391e-09
1.3822666e-09
1.1600433e-09
9.9575161e-10
8.7410093e-10
7.819466e-10
7.1199604e-10
6.593225e-10
6.1680262e-10
5.8072134e-10
5.4925113e-10
5.2136456e-10
4.9616912e-10
4.7309533e-10
4.5151726e-10
4.3104621e-10
4.1087198e-10
3.9125497e-10
3.7293492e-10
3.5611496e-10
3.4073423e-10
3.2668857e-10
3.1389761e-10
3.0229918e-10
2.9194856e-10
2.830397e-10
2.7558925e-10
2.6918237e-10
2.6363196e-10
2.5894516e-10
2.5515906e-10
2.5234963e-10
2.506895e-10
2.5047987e-10
2.5232172e-10
2.5743253e-10
2.7042893e-10
2.8677718e-10
2.9793302e-10
3.0696532e-10
3.1462661e-10
3.2136076e-10
3.2735331e-10
3.3275152e-10
3.3765116e-10
3.4212429e-10
3.4622768e-10
3.5000996e-10
3.5350545e-10
3.5674451e-10
3.5975146e-10
3.6254662e-10
3.6514643e-10
3.6756428e-10
3.6981261e-10
3.7190718e-10
3.7385734e-10
3.7567516e-10
3.7737488e-10
3.7897047e-10
3.8048462e-10
3.8192695e-10
3.8329706e-10
3.8460171e-10
3.8584217e-10
3.870201e-10
3.8813674e-10
3.8919235e-10
3.9019014e-10
3.9113409e-10
3.9203161e-10
3.9288628e-10
3.9370066e-10
3.9448038e-10
3.9522892e-10
3.9594957e-10
3.9664378e-10
3.9730188e-10
3.9775185e-10
3.9856803e-10
3.9914041e-10
3.9965777e-10
4.0009515e-10
4.0041327e-10
4.0055901e-10
4.0047631e-10
4.001387e-10
3.9962259e-10
3.9904414e-10
3.9848363e-10
3.9805985e-10
3.9784935e-10
3.9784023e-10
3.9794266e-10
3.9805788e-10
3.9814795e-10
3.981937e-10
3.9816679e-10
3.9802229e-10
3.9774162e-10
3.9735679e-10
3.9690483e-10
3.9640751e-10
3.9587117e-10
3.952921e-10
3.9466253e-10
3.9397568e-10
3.9322807e-10
3.9241804e-10
3.9154309e-10
3.9059958e-10
3.8958554e-10
3.8850375e-10
3.8736206e-10
3.861681e-10
3.8492624e-10
3.8363658e-10
3.8229239e-10
3.8088288e-10
3.7939565e-10
3.7781933e-10
3.7614326e-10
3.7435739e-10
3.7245136e-10
3.70414e-10
3.6823635e-10
3.6590661e-10
3.6341161e-10
3.6073648e-10
3.578647e-10
3.5477757e-10
3.5145409e-10
3.4786986e-10
3.4399529e-10
3.3979779e-10
3.3523626e-10
3.3025918e-10
3.2479795e-10
3.1876375e-10
3.1201406e-10
3.043745e-10
2.9537465e-10
2.8431344e-10
2.6726712e-10
2.5289341e-10
2.4671496e-10
2.4394872e-10
2.4327973e-10
2.441332e-10
2.4610129e-10
2.4898787e-10
2.5281775e-10
2.5749642e-10
2.6299461e-10
2.6939361e-10
2.770861e-10
2.8623669e-10
2.9651296e-10
3.0785337e-10
3.2030371e-10
3.3389986e-10
3.4872764e-10
3.6477916e-10
3.8183426e-10
3.9906051e-10
4.1618436e-10
4.3347859e-10
4.5204737e-10
4.7182286e-10
4.9333112e-10
5.171903e-10
5.4417296e-10
5.7538959e-10
6.1462819e-10
6.6654644e-10
7.3477628e-10
8.2292105e-10
9.3806224e-10
1.0932129e-09
1.2993678e-09
1.6054901e-09
1.9793339e-09
2.7223579e-09
3.0666671e-09
5.8153917e-09
2.6091614e-09
1.7878366e-08
3.4282771e-08
1.3315364e-07
1.4255367e-07
1.526273e-08
2.3832781e-08
2.3929905e-08
2.7021436e-08
1.6884856e-08
1.9491637e-09
6.2530748e-09
4.0093962e-09
2.9834722e-09
2.2988464e-09
1.8214897e-09
1.481504e-09
1.2372627e-09
1.0570498e-09
9.2014446e-10
8.1425271e-10
7.31155e-10
6.6600816e-10
6.1252123e-10
5.6706296e-10
5.2760034e-10
4.9291535e-10
4.6200055e-10
4.3414984e-10
4.0871603e-10
3.8523033e-10
3.6291232e-10
3.4165094e-10
3.2176919e-10
3.0337759e-10
2.864095e-10
2.707687e-10
2.563788e-10
2.4318207e-10
2.3119896e-10
2.2053847e-10
2.1123118e-10
2.0307659e-10
1.9595407e-10
1.8982578e-10
1.8464679e-10
1.8038847e-10
1.7707159e-10
1.7481857e-10
1.7387622e-10
1.7489741e-10
1.7992224e-10
1.8691335e-10
1.917926e-10
1.9568213e-10
1.9898229e-10
2.0187413e-10
2.0444291e-10
2.0675376e-10
2.0885028e-10
2.1076271e-10
2.1251637e-10
2.1413506e-10
2.1563086e-10
2.1701837e-10
2.1830666e-10
2.1950291e-10
2.20612e-10
2.2163686e-10
2.2258089e-10
2.2345367e-10
2.2425756e-10
2.2499948e-10
2.2569056e-10
2.2634219e-10
2.2697777e-10
2.2760403e-10
2.2821503e-10
2.2881471e-10
2.2939995e-10
2.2996819e-10
2.3051749e-10
2.3104448e-10
2.3154869e-10
2.3203254e-10
2.3250171e-10
2.3296129e-10
2.3341607e-10
2.3387039e-10
2.343276e-10
2.3478935e-10
2.3525598e-10
2.3572692e-10
2.3598907e-10
2.3666559e-10
2.3711429e-10
2.3752492e-10
2.3786315e-10
2.3807567e-10
2.3809077e-10
2.3783315e-10
2.3726816e-10
2.3649525e-10
2.3567031e-10
2.3490018e-10
2.3434489e-10
2.3410136e-10
2.3415084e-10
2.3437854e-10
2.3465495e-10
2.3493004e-10
2.3517911e-10
2.3536436e-10
2.3542555e-10
2.3533975e-10
2.3515004e-10
2.3490649e-10
2.3463887e-10
2.3435682e-10
2.3405674e-10
2.337298e-10
2.3336867e-10
2.3297039e-10
2.3253472e-10
2.320604e-10
2.3154483e-10
2.3098798e-10
2.3039626e-10
2.297829e-10
2.2916089e-10
2.2853974e-10
2.2792355e-10
2.2730761e-10
2.2668159e-10
2.2603492e-10
2.2535825e-10
2.2464349e-10
2.2388407e-10
2.2307357e-10
2.2220586e-10
2.2127852e-10
2.2028636e-10
2.192236e-10
2.1808396e-10
2.1686073e-10
2.1554663e-10
2.1413397e-10
2.1261412e-10
2.1097349e-10
2.0920434e-10
2.0729327e-10
2.0522278e-10
2.0296836e-10
2.004972e-10
1.9775177e-10
1.946627e-10
1.9101331e-10
1.8645765e-10
1.7865671e-10
1.7183101e-10
1.6946259e-10
1.6930594e-10
1.705522e-10
1.7292744e-10
1.762342e-10
1.8041951e-10
1.8554053e-10
1.91605e-10
1.9860684e-10
2.0660693e-10
2.1585079e-10
2.2639554e-10
2.3803763e-10
2.5074872e-10
2.6457096e-10
2.7954331e-10
2.9573604e-10
3.1312124e-10
3.3160391e-10
3.5071414e-10
3.7044757e-10
3.9121848e-10
4.1388793e-10
4.3855477e-10
4.6580183e-10
4.9632795e-10
5.3103285e-10
5.709082e-10
6.2016131e-10
6.8206579e-10
7.6079644e-10
8.5872821e-10
9.8393266e-10
1.148081e-09
1.3664023e-09
1.66966e-09
2.0746754e-09
2.717142e-09
3.1826713e-09
5.0921348e-09
1.3703496e-09
1.1714901e-08
2.0687784e-08
2.0029418e-08
2.5739151e-08
2.3185681e-10
1.131187e-09
6.4682236e-10
5.6624515e-09
5.8629408e-09
7.8036861e-10
3.1759103e-09
2.4897618e-09
2.0851069e-09
1.8258375e-09
1.4927218e-09
1.2312544e-09
1.0317616e-09
8.8244591e-10
7.6529622e-10
6.7212231e-10
5.9646213e-10
5.3526295e-10
4.8470634e-10
4.419614e-10
4.0517766e-10
3.7320656e-10
3.4511783e-10
3.20212e-10
2.9794234e-10
2.7785316e-10
2.5931699e-10
2.4196063e-10
2.2577596e-10
2.1083342e-10
1.9710816e-10
1.8455276e-10
1.7312575e-10
1.6279371e-10
1.5355275e-10
1.4542076e-10
1.383794e-10
1.3232121e-10
1.2716857e-10
1.228283e-10
1.1917357e-10
1.1608233e-10
1.134501e-10
1.1123873e-10
1.0942698e-10
1.0819345e-10
1.0781439e-10
1.0841478e-10
1.0908658e-10
1.0963292e-10
1.1014109e-10
1.1060761e-10
1.1103868e-10
1.1143934e-10
1.1181408e-10
1.1216373e-10
1.1249083e-10
1.1279953e-10
1.1308616e-10
1.1335698e-10
1.1361142e-10
1.138486e-10
1.1406677e-10
1.1426331e-10
1.1443665e-10
1.1459112e-10
1.1472551e-10
1.1484278e-10
1.1494994e-10
1.1505448e-10
1.1517398e-10
1.1531225e-10
1.1546239e-10
1.1562611e-10
1.1579793e-10
1.1597136e-10
1.1614807e-10
1.1632398e-10
1.164972e-10
1.1666882e-10
1.1684237e-10
1.1702225e-10
1.1721296e-10
1.1741714e-10
1.1763738e-10
1.1787434e-10
1.1812788e-10
1.1840058e-10
1.1854021e-10
1.1896487e-10
1.1924797e-10
1.1951e-10
1.1972153e-10
1.1983699e-10
1.1979528e-10
1.1953261e-10
1.1902032e-10
1.183397e-10
1.176244e-10
1.1696559e-10
1.1649883e-10
1.1630218e-10
1.1635885e-10
1.1657632e-10
1.1684652e-10
1.1712671e-10
1.1739623e-10
1.1762224e-10
1.177529e-10
1.1777012e-10
1.1771033e-10
1.1761601e-10
1.1751247e-10
1.1740824e-10
1.1730074e-10
1.1718303e-10
1.1704941e-10
1.1689787e-10
1.1672878e-10
1.1654173e-10
1.1633521e-10
1.1611e-10
1.1587239e-10
1.1563446e-10
1.154076e-10
1.1520152e-10
1.1502106e-10
1.1486239e-10
1.1471499e-10
1.1457578e-10
1.1443869e-10
1.1429882e-10
1.1415282e-10
1.1399719e-10
1.138304e-10
1.1365326e-10
1.134649e-10
1.1326442e-10
1.1305113e-10
1.128247e-10
1.1258516e-10
1.1233327e-10
1.1207046e-10
1.1179066e-10
1.1150421e-10
1.1121593e-10
1.1093102e-10
1.1065519e-10
1.1039547e-10
1.101562e-10
1.0994786e-10
1.0974597e-10
1.0950065e-10
1.0828893e-10
1.0706032e-10
1.070872e-10
1.0795225e-10
1.0932668e-10
1.1118612e-10
1.1352844e-10
1.1641903e-10
1.1996075e-10
1.2425695e-10
1.2935331e-10
1.353076e-10
1.4229799e-10
1.5035898e-10
1.5942443e-10
1.694937e-10
1.8059273e-10
1.9274319e-10
2.059556e-10
2.2004822e-10
2.3516088e-10
2.5115257e-10
2.6820776e-10
2.8678395e-10
3.0742633e-10
3.30352e-10
3.5612285e-10
3.8541109e-10
4.1908766e-10
4.5789499e-10
5.0569701e-10
5.6377158e-10
6.357796e-10
7.2092083e-10
8.2625159e-10
9.5944989e-10
1.133453e-09
1.359457e-09
1.6722689e-09
2.0869489e-09
2.1514078e-09
2.8890555e-09
5.8207139e-10
5.2326838e-09
5.6062935e-09
5.8804105e-10
1.2106316e-09
2.2845772e-13
1.3425945e-11
1.6342407e-12
6.1460433e-10
1.2035974e-09
2.4696625e-10
1.2159974e-09
1.1239546e-09
9.9954063e-10
9.3940214e-10
8.1377898e-10
7.1322446e-10
6.2366045e-10
5.4959176e-10
4.8514995e-10
4.2922105e-10
3.8017297e-10
3.3856523e-10
3.0408033e-10
2.7509874e-10
2.5029653e-10
2.2890787e-10
2.1029319e-10
1.93943e-10
1.795501e-10
1.667816e-10
1.5521051e-10
1.4436855e-10
1.3414642e-10
1.2470379e-10
1.1612642e-10
1.0845998e-10
1.017278e-10
9.5936188e-11
9.1077301e-11
8.7101873e-11
8.3913157e-11
8.1371933e-11
7.9443716e-11
7.7998921e-11
7.686003e-11
7.5856097e-11
7.4819388e-11
7.3632027e-11
7.2138167e-11
7.026866e-11
6.7424052e-11
6.5060477e-11
6.3900403e-11
6.3067236e-11
6.2466306e-11
6.199855e-11
6.1627568e-11
6.1327068e-11
6.1081249e-11
6.0876469e-11
6.0703983e-11
6.0559626e-11
6.0435115e-11
6.0328575e-11
6.023549e-11
6.0151848e-11
6.0073612e-11
5.9996477e-11
5.9917289e-11
5.9837783e-11
5.975586e-11
5.9672692e-11
5.9592808e-11
5.9521303e-11
5.9470843e-11
5.9443717e-11
5.943393e-11
5.9442233e-11
5.9456442e-11
5.9454766e-11
5.946397e-11
5.9480394e-11
5.9501917e-11
5.9528923e-11
5.9563497e-11
5.9609016e-11
5.9669073e-11
5.9745249e-11
5.9839527e-11
5.995214e-11
6.0082855e-11
6.0234204e-11
6.0327105e-11
6.0562699e-11
6.0735393e-11
6.0897201e-11
6.102548e-11
6.1085294e-11
6.1029896e-11
6.0810771e-11
6.0406596e-11
5.9876505e-11
5.9323935e-11
5.8819965e-11
5.8465129e-11
5.8316402e-11
5.8362508e-11
5.8536479e-11
5.8757436e-11
5.8991989e-11
5.9224261e-11
5.942813e-11
5.9563351e-11
5.9617184e-11
5.9617313e-11
5.9596013e-11
5.9572543e-11
5.9553581e-11
5.9537401e-11
5.9518964e-11
5.9494157e-11
5.9461628e-11
5.9421872e-11
5.9374828e-11
5.9319672e-11
5.9257353e-11
5.9193059e-11
5.9136419e-11
5.909604e-11
5.9080496e-11
5.9094162e-11
5.9127437e-11
5.9154629e-11
5.9197276e-11
5.9251428e-11
5.9314082e-11
5.9383451e-11
5.945748e-11
5.953697e-11
5.9623548e-11
5.9718095e-11
5.9821735e-11
5.9936092e-11
6.0063453e-11
6.0206935e-11
6.0370801e-11
6.0560731e-11
6.0779797e-11
6.1041335e-11
6.1358076e-11
6.1745918e-11
6.2225424e-11
6.2823719e-11
6.3577683e-11
6.4540176e-11
6.5792067e-11
6.7446058e-11
6.9442448e-11
7.0985059e-11
7.1875268e-11
7.2660382e-11
7.3284839e-11
7.3858328e-11
7.448666e-11
7.5294434e-11
7.6415111e-11
7.8013018e-11
8.0177926e-11
8.2949611e-11
8.6536815e-11
9.1009652e-11
9.6401371e-11
1.02723e-10
1.0997463e-10
1.1813746e-10
1.2707066e-10
1.3598423e-10
1.4570974e-10
1.5627462e-10
1.6790402e-10
1.8099041e-10
1.9583222e-10
2.1264075e-10
2.3190217e-10
2.5417425e-10
2.8017024e-10
3.103986e-10
3.4785226e-10
3.9233578e-10
4.4631927e-10
5.017825e-10
5.6365058e-10
6.3352496e-10
7.1495152e-10
8.0289372e-10
9.0910214e-10
1.0149007e-09
9.6299146e-10
1.162681e-09
2.1879553e-10
1.2293576e-09
8.2558156e-10
1.6917294e-12
1.4236441e-11
2.0555191e-17
5.6738013e-15
4.2811252e-17
2.6538453e-11
1.5358175e-10
6.3827233e-11
3.8600848e-10
4.2560494e-10
3.9551931e-10
3.9552132e-10
3.5650187e-10
3.2480755e-10
2.9133477e-10
2.6116079e-10
2.3274167e-10
2.0664437e-10
1.8273252e-10
1.6197454e-10
1.4490714e-10
1.3082539e-10
1.1902487e-10
1.0909245e-10
1.0065884e-10
9.3410953e-11
8.7276282e-11
8.2079258e-11
7.763525e-11
7.3692372e-11
7.0144061e-11
6.7068786e-11
6.4513587e-11
6.2503091e-11
6.1042753e-11
6.012256e-11
5.9713884e-11
5.970462e-11
5.9959751e-11
5.9377162e-11
4.7433576e-11
3.8548805e-11
3.2005259e-11
2.7262922e-11
2.3935261e-11
2.1780491e-11
2.0654691e-11
2.05629e-11
2.1634347e-11
2.2824575e-11
2.3666474e-11
2.4305506e-11
2.485251e-11
2.5325259e-11
2.5740285e-11
2.6108957e-11
2.6439942e-11
2.6736982e-11
2.7004609e-11
2.725053e-11
2.7475839e-11
2.7681118e-11
2.7866542e-11
2.803171e-11
2.8175295e-11
2.8294971e-11
2.8389596e-11
2.8463771e-11
2.8517126e-11
2.8553524e-11
2.8581329e-11
2.8609795e-11
2.8657429e-11
2.8726268e-11
2.8809473e-11
2.8908712e-11
2.9019784e-11
2.9139652e-11
2.9263994e-11
2.9388684e-11
2.9511838e-11
2.9634837e-11
2.9761237e-11
2.9896024e-11
3.0045007e-11
3.0211539e-11
3.0399155e-11
3.0609378e-11
3.0841927e-11
3.1116354e-11
3.1316271e-11
3.1652215e-11
3.1938919e-11
3.2213319e-11
3.2444649e-11
3.2583469e-11
3.2561398e-11
3.2303695e-11
3.1768879e-11
3.1014254e-11
3.021537e-11
2.945206e-11
2.8901802e-11
2.8641574e-11
2.8647708e-11
2.8855633e-11
2.9148143e-11
2.9464957e-11
2.978765e-11
3.0076474e-11
3.0276984e-11
3.0352895e-11
3.0337562e-11
3.0280496e-11
3.0213492e-11
3.0148768e-11
3.0085071e-11
3.0015169e-11
2.9932404e-11
2.9834102e-11
2.9720879e-11
2.9592824e-11
2.9448519e-11
2.9287971e-11
2.9116078e-11
2.8944075e-11
2.8783053e-11
2.8643837e-11
2.8533467e-11
2.8451626e-11
2.8392768e-11
2.8348794e-11
2.8312969e-11
2.8279552e-11
2.8244364e-11
2.8202765e-11
2.815319e-11
2.8096037e-11
2.8030337e-11
2.7954992e-11
2.7869181e-11
2.7772435e-11
2.7664708e-11
2.7546545e-11
2.7419076e-11
2.7284071e-11
2.7143732e-11
2.7000518e-11
2.6856668e-11
2.6713309e-11
2.6569946e-11
2.6419712e-11
2.6251503e-11
2.6007132e-11
2.5558353e-11
2.3814285e-11
2.147746e-11
2.0789488e-11
2.1377377e-11
2.3066864e-11
2.5936463e-11
3.0151372e-11
3.6081149e-11
4.4203239e-11
5.5168917e-11
5.7509246e-11
5.7141967e-11
5.7092282e-11
5.746114e-11
5.8350777e-11
5.9785757e-11
6.1779882e-11
6.4331487e-11
6.7396893e-11
7.0755193e-11
7.457169e-11
7.8901055e-11
8.3892924e-11
8.9792446e-11
9.6696683e-11
1.0465998e-10
1.140294e-10
1.2514002e-10
1.3839206e-10
1.5410116e-10
1.7380316e-10
1.9653231e-10
2.2281839e-10
2.4895094e-10
2.7632183e-10
3.0456553e-10
3.3413702e-10
3.5993142e-10
3.8606157e-10
3.9938911e-10
3.5500513e-10
3.8311913e-10
7.7191191e-11
1.7989483e-10
6.4677858e-11
8.0018143e-17
5.5223416e-15
4.6166885e-22
3.1518261e-19
4.520056e-23
1.858425e-13
1.1262663e-11
1.0332458e-11
1.0469194e-10
1.4251501e-10
1.3660122e-10
1.4626707e-10
1.3687983e-10
1.2961412e-10
1.1942754e-10
1.0938854e-10
9.9144989e-11
8.9314002e-11
8.0028888e-11
7.1893925e-11
6.5347431e-11
6.0145426e-11
5.5981037e-11
5.2665839e-11
5.0036438e-11
4.7950836e-11
4.6391265e-11
4.5293755e-11
4.4612034e-11
4.4274612e-11
4.4218331e-11
4.0931414e-11
3.2965809e-11
2.6025806e-11
2.0140272e-11
1.5283428e-11
1.1386192e-11
8.3642034e-12
6.1306157e-12
4.5461129e-12
3.4276633e-12
2.6405785e-12
2.0891031e-12
1.7061655e-12
1.4461909e-12
1.2808324e-12
1.1923042e-12
1.1764373e-12
1.2379586e-12
1.3066233e-12
1.3548414e-12
1.3912708e-12
1.422555e-12
1.4495847e-12
1.4732631e-12
1.4942652e-12
1.5131024e-12
1.5299672e-12
1.5450975e-12
1.5590198e-12
1.57177e-12
1.5833468e-12
1.5937249e-12
1.6028399e-12
1.6105611e-12
1.616685e-12
1.6210891e-12
1.6240972e-12
1.6256836e-12
1.6261337e-12
1.6260805e-12
1.6262389e-12
1.6280076e-12
1.6315606e-12
1.6363514e-12
1.6424989e-12
1.6496695e-12
1.6576188e-12
1.6660046e-12
1.6745003e-12
1.6829551e-12
1.6914718e-12
1.7003284e-12
1.7099185e-12
1.720694e-12
1.7328904e-12
1.7468131e-12
1.7625903e-12
1.7802193e-12
1.8010106e-12
1.8166769e-12
1.8425618e-12
1.8648688e-12
1.886329e-12
1.9045092e-12
1.915484e-12
1.9138274e-12
1.8936535e-12
1.8518052e-12
1.7926933e-12
1.7302184e-12
1.670861e-12
1.6281917e-12
1.6075525e-12
1.6069495e-12
1.6220674e-12
1.6442824e-12
1.6688302e-12
1.6941482e-12
1.7169779e-12
1.7328829e-12
1.7392031e-12
1.7385224e-12
1.7346436e-12
1.7300096e-12
1.7255723e-12
1.7212486e-12
1.7164927e-12
1.7107975e-12
1.7039571e-12
1.6960173e-12
1.6869904e-12
1.6767809e-12
1.6654077e-12
1.6532668e-12
1.6412293e-12
1.6300735e-12
1.6207101e-12
1.613676e-12
1.608945e-12
1.6060901e-12
1.6044897e-12
1.6036316e-12
1.6030834e-12
1.6025084e-12
1.6015476e-12
1.6001763e-12
1.5984005e-12
1.5961565e-12
1.5933778e-12
1.5900211e-12
1.5860738e-12
1.5815598e-12
1.5765527e-12
1.571176e-12
1.5656082e-12
1.5600684e-12
1.5548041e-12
1.5500585e-12
1.5460057e-12
1.5427155e-12
1.539803e-12
1.5365436e-12
1.528703e-12
1.5067209e-12
1.3951241e-12
1.2405029e-12
1.1990799e-12
1.247389e-12
1.3763668e-12
1.5975606e-12
1.9324014e-12
2.4233098e-12
3.1289828e-12
4.1349175e-12
5.555568e-12
7.5536964e-12
1.0296458e-11
1.3866072e-11
1.8355817e-11
2.3865661e-11
3.0459663e-11
3.8162607e-11
4.2783821e-11
4.2981294e-11
4.3471164e-11
4.4282713e-11
4.5450568e-11
4.7056729e-11
4.9121423e-11
5.1682907e-11
5.4896833e-11
5.8920731e-11
6.3950666e-11
7.009e-11
7.8057075e-11
8.7146287e-11
9.7454921e-11
1.0726011e-10
1.1691074e-10
1.2588549e-10
1.3407516e-10
1.3856271e-10
1.4147139e-10
1.3594106e-10
1.1535152e-10
1.0794736e-10
2.1042779e-11
1.5470599e-11
2.3126661e-12
4.7417349e-22
2.2509658e-19
1.0855506e-27
3.7166317e-24
9.6333146e-30
5.5131189e-17
2.3065424e-13
7.1307262e-13
1.6490539e-11
4.5402022e-11
4.3565995e-11
5.0820729e-11
4.9586589e-11
4.9416936e-11
4.7446811e-11
4.527029e-11
4.2736626e-11
4.021763e-11
3.7785575e-11
3.5689983e-11
3.414012e-11
2.9817849e-11
2.4058416e-11
1.9538943e-11
1.5977118e-11
1.3144158e-11
1.0888434e-11
9.0750179e-12
7.5888656e-12
6.2733673e-12
5.0664323e-12
3.9942486e-12
3.073688e-12
2.3083721e-12
1.6919452e-12
1.210997e-12
8.4763008e-13
5.8324472e-13
4.0032943e-13
2.7884113e-13
1.9826431e-13
1.4472642e-13
1.0910473e-13
8.5449273e-14
6.9947395e-14
6.030116e-14
5.5088409e-14
5.3826816e-14
5.6569476e-14
5.9656068e-14
6.1802855e-14
6.3417441e-14
6.4809729e-14
6.6012364e-14
6.7062871e-14
6.7992812e-14
6.882584e-14
6.9569542e-14
7.0232959e-14
7.084438e-14
7.1404069e-14
7.1909971e-14
7.2358908e-14
7.2745605e-14
7.3061094e-14
7.3292228e-14
7.3430039e-14
7.3492077e-14
7.3477413e-14
7.3402517e-14
7.330444e-14
7.3225801e-14
7.3248492e-14
7.3384516e-14
7.3600185e-14
7.3902077e-14
7.4269889e-14
7.4688539e-14
7.5137239e-14
7.5596193e-14
7.6056203e-14
7.6523244e-14
7.7014096e-14
7.7552683e-14
7.8165576e-14
7.8866295e-14
7.9674768e-14
8.0599565e-14
8.164203e-14
8.2870301e-14
8.3829058e-14
8.5375712e-14
8.6725632e-14
8.803135e-14
8.9144196e-14
8.9823255e-14
8.973535e-14
8.852157e-14
8.5996011e-14
8.2422566e-14
7.8654175e-14
7.5102063e-14
7.2551761e-14
7.1282825e-14
7.116972e-14
7.1995808e-14
7.3281662e-14
7.4739263e-14
7.6263398e-14
7.7648254e-14
7.8614812e-14
7.9013094e-14
7.8997997e-14
7.8792698e-14
7.8541726e-14
7.8302271e-14
7.8070349e-14
7.7814406e-14
7.7504727e-14
7.7129028e-14
7.6689832e-14
7.6188153e-14
7.5619249e-14
7.4985555e-14
7.4311893e-14
7.364916e-14
7.3041105e-14
7.2545048e-14
7.2192366e-14
7.1980968e-14
7.1885174e-14
7.1867985e-14
7.1899276e-14
7.1953854e-14
7.2009051e-14
7.2047308e-14
7.2069803e-14
7.2075767e-14
7.2061884e-14
7.2024977e-14
7.1963352e-14
7.1877287e-14
7.1769403e-14
7.1645439e-14
7.1514343e-14
7.1388481e-14
7.1282934e-14
7.1214745e-14
7.1201074e-14
7.125548e-14
7.1385586e-14
7.1572747e-14
7.1773995e-14
7.1740524e-14
7.090215e-14
6.5248347e-14
5.7241084e-14
5.5261176e-14
5.8145132e-14
6.5580492e-14
7.8545787e-14
9.883417e-14
1.2989657e-13
1.768579e-13
2.4769472e-13
3.5410866e-13
5.1395718e-13
7.4848426e-13
1.073934e-12
1.5091807e-12
2.0750695e-12
2.789592e-12
3.6665351e-12
4.7121827e-12
5.9208793e-12
7.2734263e-12
8.8185956e-12
1.0678223e-11
1.3041073e-11
1.5973923e-11
1.9658258e-11
2.4332549e-11
3.0304257e-11
3.4171143e-11
3.5612065e-11
3.7747005e-11
4.0220471e-11
4.3107332e-11
4.5611448e-11
4.7870721e-11
4.9572954e-11
5.0690434e-11
4.9768919e-11
4.8385112e-11
4.2670348e-11
3.6178574e-11
2.0348672e-11
2.1798862e-12
4.48875e-13
1.4370429e-14
3.83884e-27
1.4738794e-24
2.7956875e-31
1.3997254e-29
5.4542064e-27
4.0672035e-22
1.5105893e-15
3.5344318e-14
1.3416007e-12
6.7569444e-12
6.8985975e-12
1.143331e-11
1.2418941e-11
1.3909769e-11
1.3857287e-11
1.3110466e-11
1.1632419e-11
9.7820212e-12
7.7476721e-12
5.9033492e-12
4.4936089e-12
3.4491129e-12
2.6679856e-12
2.0806786e-12
1.6366437e-12
1.2973363e-12
1.0374573e-12
8.3626436e-13
6.7742958e-13
5.4161306e-13
4.2124889e-13
3.184109e-13
2.3390092e-13
1.6697426e-13
1.1586077e-13
7.8213964e-14
5.1470388e-14
3.3231686e-14
2.1425859e-14
1.4081501e-14
9.4989987e-15
6.6186919e-15
4.7939574e-15
3.6312928e-15
2.8930466e-15
2.441867e-15
2.1950736e-15
2.1204858e-15
2.2106262e-15
2.3147197e-15
2.3868925e-15
2.4407794e-15
2.4877492e-15
2.528353e-15
2.5636911e-15
2.5948997e-15
2.6228238e-15
2.6476565e-15
2.6696071e-15
2.6899069e-15
2.7084891e-15
2.7251654e-15
2.7397064e-15
2.7517927e-15
2.7609379e-15
2.7664603e-15
2.7678511e-15
2.7658747e-15
2.7605262e-15
2.7525831e-15
2.7438086e-15
2.7362609e-15
2.7338493e-15
2.7372598e-15
2.744797e-15
2.7567507e-15
2.7721178e-15
2.7901408e-15
2.8097947e-15
2.8301065e-15
2.8506216e-15
2.8716234e-15
2.8939334e-15
2.9187317e-15
2.9472587e-15
2.9801943e-15
3.0185728e-15
3.0628686e-15
3.1132355e-15
3.1725443e-15
3.2206638e-15
3.2958331e-15
3.3625579e-15
3.4274794e-15
3.4832041e-15
3.5176825e-15
3.5142234e-15
3.4549496e-15
3.3309217e-15
3.1551492e-15
2.970313e-15
2.7980019e-15
2.6743583e-15
2.6108704e-15
2.6012339e-15
2.6367974e-15
2.6964447e-15
2.7662796e-15
2.8404098e-15
2.9084158e-15
2.955971e-15
2.9762637e-15
2.976778e-15
2.968069e-15
2.9570668e-15
2.946563e-15
2.9364231e-15
2.9251762e-15
2.9114137e-15
2.8945393e-15
2.8746612e-15
2.8518428e-15
2.8259086e-15
2.7970516e-15
2.7665457e-15
2.7367454e-15
2.709751e-15
2.688424e-15
2.6742406e-15
2.6670563e-15
2.6656059e-15
2.6680975e-15
2.6730936e-15
2.679384e-15
2.6857234e-15
2.6915939e-15
2.6970472e-15
2.7020238e-15
2.7063875e-15
2.7100202e-15
2.7128812e-15
2.7150325e-15
2.7166589e-15
2.7181051e-15
2.719883e-15
2.7226804e-15
2.7273324e-15
2.7347849e-15
2.7460105e-15
2.7618334e-15
2.7827955e-15
2.8081882e-15
2.8358597e-15
2.853803e-15
2.8342001e-15
2.6049769e-15
2.2694345e-15
2.1911474e-15
2.3251556e-15
2.6648319e-15
3.2678713e-15
4.2417612e-15
5.7953623e-15
8.2606334e-15
1.2189519e-14
1.8461755e-14
2.8521878e-14
4.4308413e-14
6.76979e-14
1.0101168e-13
1.4698268e-13
2.0834406e-13
2.8762703e-13
3.8670902e-13
5.0616509e-13
6.4502924e-13
8.0970227e-13
1.0157106e-12
1.2883905e-12
1.6405378e-12
2.1016325e-12
2.7120876e-12
3.526855e-12
4.6223225e-12
6.074684e-12
8.0561885e-12
1.0276491e-11
1.2575121e-11
1.4314335e-11
1.5400123e-11
1.5584677e-11
1.4892557e-11
1.2657461e-11
1.0276615e-11
6.4732944e-12
4.0373484e-12
1.7502476e-12
1.9037902e-13
3.6740479e-15
2.2528903e-17
3.0797444e-31
2.2637689e-30
4.0605922e-31
6.901504e-31
4.4757026e-31
8.0140989e-29
2.6609597e-18
1.1691867e-15
8.0605609e-14
5.8081705e-13
6.5723819e-13
1.1994935e-12
1.3771164e-12
1.5998793e-12
1.6236066e-12
1.5406149e-12
1.3523203e-12
1.1113196e-12
8.4856958e-13
6.1768443e-13
4.4882654e-13
3.293785e-13
2.4401042e-13
1.8258738e-13
1.3808212e-13
1.0543414e-13
8.1393728e-14
6.3474997e-14
4.9844799e-14
3.8583508e-14
2.8943466e-14
2.1021159e-14
1.4787289e-14
1.0080144e-14
6.6656073e-15
4.2847676e-15
2.6875461e-15
1.6597939e-15
1.0313625e-15
6.6047842e-16
4.3931778e-16
3.0533935e-16
2.227609e-16
1.7103379e-16
1.3830072e-16
1.1797026e-16
1.060758e-16
1.009248e-16
1.0147968e-16
1.0274113e-16
1.0380914e-16
1.0458029e-16
1.0535369e-16
1.0604389e-16
1.066459e-16
1.0718052e-16
1.0766444e-16
1.080902e-16
1.0845118e-16
1.0879779e-16
1.0911894e-16
1.0939768e-16
1.0961634e-16
1.0975393e-16
1.0978212e-16
1.0966365e-16
1.0936884e-16
1.0893065e-16
1.0835068e-16
1.076661e-16
1.0696228e-16
1.0633962e-16
1.0598851e-16
1.0594809e-16
1.061298e-16
1.0654545e-16
1.0714384e-16
1.0788556e-16
1.0871874e-16
1.0959445e-16
1.1048959e-16
1.1141767e-16
1.124193e-16
1.1355357e-16
1.1487787e-16
1.1642921e-16
1.1826101e-16
1.2039992e-16
1.2285845e-16
1.2575152e-16
1.2824594e-16
1.3190044e-16
1.3524598e-16
1.3852311e-16
1.4135802e-16
1.431374e-16
1.430091e-16
1.4006425e-16
1.3386394e-16
1.2507298e-16
1.1585836e-16
1.0741581e-16
1.0134799e-16
9.8118307e-17
9.7433648e-17
9.8931401e-17
1.0169564e-16
1.0506393e-16
1.087052e-16
1.1208577e-16
1.1446257e-16
1.155245e-16
1.1562998e-16
1.1528195e-16
1.1481643e-16
1.1437184e-16
1.1394506e-16
1.1346723e-16
1.1287096e-16
1.1212681e-16
1.1123925e-16
1.102122e-16
1.0904005e-16
1.0773665e-16
1.0636891e-16
1.0504426e-16
1.0387139e-16
1.0299283e-16
1.0247896e-16
1.0232047e-16
1.0245427e-16
1.0279266e-16
1.0326671e-16
1.0381475e-16
1.0437478e-16
1.0493711e-16
1.0550277e-16
1.0606962e-16
1.066333e-16
1.0719103e-16
1.0774438e-16
1.0830078e-16
1.0887471e-16
1.0948976e-16
1.1017943e-16
1.1098787e-16
1.1196917e-16
1.1318632e-16
1.1470802e-16
1.1660143e-16
1.1892558e-16
1.2168601e-16
1.248101e-16
1.2775325e-16
1.2916763e-16
1.2152406e-16
1.0821825e-16
1.0498269e-16
1.1058893e-16
1.2480777e-16
1.5030105e-16
1.9211421e-16
2.603226e-16
3.7179157e-16
5.5623324e-16
8.6444615e-16
1.3858795e-15
2.2530506e-15
3.616249e-15
5.6755942e-15
8.6841304e-15
1.2923438e-14
1.8686496e-14
2.6234398e-14
3.5727612e-14
4.7195841e-14
6.1312722e-14
7.9669244e-14
1.0498485e-13
1.3902587e-13
1.8552472e-13
2.498364e-13
3.3963246e-13
4.6615121e-13
6.4175759e-13
8.9313482e-13
1.1848336e-12
1.4935629e-12
1.7232217e-12
1.8544069e-12
1.8524106e-12
1.7179155e-12
1.3885028e-12
1.0435536e-12
5.9347977e-13
3.3246436e-13
1.1116982e-13
1.3760359e-14
7.411621e-18
1.1988842e-20
2.1250739e-27
6.7827436e-31
5.8343008e-31
2.0660267e-24
3.7515825e-22
3.6203867e-25
1.5306212e-21
2.5121787e-17
3.3943397e-15
3.9027641e-14
4.9285298e-14
1.0074015e-13
1.2347779e-13
1.4994755e-13
1.5587464e-13
1.4891351e-13
1.2965342e-13
1.0430682e-13
7.6852344e-14
5.3477841e-14
3.712687e-14
2.6085102e-14
1.8542221e-14
1.3345951e-14
9.7344896e-15
7.1879382e-15
5.3821389e-15
4.0836058e-15
3.1293705e-15
2.3649913e-15
1.7301243e-15
1.2252914e-15
8.4189523e-16
5.6289226e-16
3.678511e-16
2.3655918e-16
1.5118055e-16
9.7526493e-17
6.5150555e-17
4.609148e-17
3.4644799e-17
2.760377e-17
2.3153e-17
2.0244298e-17
1.8243359e-17
1.6793979e-17
1.5640005e-17
1.464143e-17
1.3585194e-17
1.2700425e-17
1.2213892e-17
1.1857288e-17
1.1594952e-17
1.138303e-17
1.1204625e-17
1.1052152e-17
1.0920748e-17
1.080469e-17
1.0699215e-17
1.0607448e-17
1.0525961e-17
1.0450928e-17
1.0378832e-17
1.0306095e-17
1.0228563e-17
1.0141274e-17
1.004015e-17
9.9281664e-18
9.8055961e-18
9.6763216e-18
9.5495078e-18
9.4359083e-18
9.3561213e-18
9.3148435e-18
9.3013504e-18
9.3163919e-18
9.3539261e-18
9.4092327e-18
9.4763547e-18
9.5497496e-18
9.6267469e-18
9.7087353e-18
9.8001063e-18
9.9073994e-18
1.0036236e-17
1.0191329e-17
1.037858e-17
1.0601243e-17
1.0861237e-17
1.1165812e-17
1.1462892e-17
1.1836313e-17
1.2202775e-17
1.2564586e-17
1.2880109e-17
1.3080561e-17
1.306995e-17
1.2746142e-17
1.2061457e-17
1.1092935e-17