/*--------------------------------*- C++ -*----------------------------------*\
| =========                 |                                                 |
| \\      /  F ield         | OpenFOAM: The Open Source CFD Toolbox           |
|  \\    /   O peration     | Version:  2.4.0                                 |
|   \\  /    A nd           | Web:      www.OpenFOAM.org                      |
|    \\/     M anipulation  |                                                 |
\*---------------------------------------------------------------------------*/
FoamFile
{
    version     2.0;
    format      ascii;
    class       volScalarField;
    location    "230";
    object      p;
}
// * * * * * * * * * * * * * * * * * * * * * * * * * * * * * * * * * * * * * //

dimensions      [0 2 -2 0 0 0 0];

internalField   nonuniform List<scalar> 
32000
(
-0.029201012
-0.015885584
-0.01919216
-0.018095245
-0.01612777
-0.010450017
-0.0045268177
-0.00098505233
0.00082290111
0.001783268
0.0025315574
0.0031907396
0.0038070919
0.0043300029
0.0047541488
0.005081777
0.005311265
0.0054934841
0.0056373931
0.0057623872
0.0058589962
0.0059316673
0.0059707435
0.0059657473
0.0059008776
0.0057615698
0.005540408
0.0052343521
0.0048447557
0.0043844074
0.0038762183
0.0033508323
0.0028453664
0.0023988529
0.0020443882
0.0018001446
0.0016624142
0.0016097407
0.0016163102
0.0016574275
0.0017182673
0.0017912294
0.0018709894
0.001955896
0.0020430207
0.0021319982
0.0022169636
0.0023080889
0.0023953755
0.002477211
0.0025475924
0.0026010838
0.002629801
0.0026279496
0.0025890749
0.0025073809
0.0023788559
0.0022016505
0.0019708541
0.0016844039
0.0013451221
0.0009598899
0.00054248642
0.00011532964
-0.00029076279
-0.00063606096
-0.00088238257
-0.00099046767
-0.00094728115
-0.00075570902
-0.00049801082
-0.00022644239
6.3052925e-05
0.0003530082
0.00065702051
0.00098781381
0.0013667394
0.0018187774
0.0023750435
0.0030705319
0.0039413173
0.0050203309
0.0063327815
0.0078918209
0.0096922988
0.011709508
0.013874553
0.016077543
0.01826542
0.020283782
0.021876914
0.022780454
0.022655364
0.021116106
0.01779753
0.012505002
0.00546732
-0.0024183189
-0.0096465598
-0.014832179
-0.017507196
-0.018141489
-0.017656618
-0.016809775
-0.015952352
-0.015014077
-0.013637036
-0.011586644
-0.0090502711
-0.0064676619
-0.0041984416
-0.0023657725
-0.0009454146
0.00012945051
0.00090822666
0.0014091377
0.0016284665
0.0015621497
0.0012142466
0.00058501423
-0.00033826097
-0.0015913854
-0.0032301849
-0.0053084001
-0.0078646869
-0.010905877
-0.014402378
-0.018283275
-0.022445731
-0.026773622
-0.031155824
-0.035495202
-0.039711487
-0.043745532
-0.047554356
-0.051108389
-0.054386122
-0.057370876
-0.060048863
-0.062407102
-0.064431742
-0.066106124
-0.067408951
-0.06831245
-0.06878004
-0.068762833
-0.068196699
-0.066993244
-0.065038504
-0.062160179
-0.058172915
-0.052683193
-0.045685259
-0.03679133
-0.032467513
-0.029050427
-0.026529797
-0.024537604
-0.022945045
-0.021564606
-0.020386472
-0.019277534
-0.018202366
-0.017094912
-0.01595061
-0.01466107
-0.012905522
-0.010526066
-0.0074153757
-0.0034840117
0.0013128161
0.0069962863
0.013557634
0.021006998
0.029138364
0.037665111
0.046251653
0.054822244
0.063225934
0.071340076
0.079048439
0.0862543
0.09282574
0.098655096
0.10360782
0.10736993
0.10963949
0.10943411
0.10553381
0.09721701
0.083175216
0.06209963
0.033798986
-0.00010614451
-0.029626537
-0.048269146
-0.055716554
-0.056002115
-0.049830587
-0.047206955
-0.029202099
-0.01588535
-0.019190605
-0.018090463
-0.016126476
-0.010460117
-0.0045431618
-0.00099920794
0.00081324635
0.0017766827
0.0025258273
0.0031852496
0.0038018146
0.0043253996
0.0047502972
0.0050787955
0.0053090248
0.0054916809
0.0056358807
0.0057610723
0.0058579046
0.0059307991
0.005970178
0.0059655936
0.0059012768
0.0057626483
0.005542252
0.005237007
0.0048481937
0.0043884871
0.0038807058
0.00335543
0.002849738
0.0024026776
0.0020474336
0.0018023259
0.0016638221
0.0016105542
0.0016167193
0.0016575972
0.0017183091
0.0017912155
0.0018709642
0.0019558946
0.002043064
0.0021321109
0.0022171473
0.0023082442
0.0023954686
0.0024772356
0.0025475373
0.0026009476
0.00262959
0.0026276673
0.0025887223
0.0025069622
0.0023783811
0.0022011238
0.0019702787
0.0016837961
0.0013445053
0.0009592982
0.00054196824
0.00011494762
-0.00029093695
-0.00063596222
-0.00088196614
-0.00098972897
-0.00094627676
-0.00075461076
-0.00049696132
-0.00022544771
6.398078e-05
0.00035385444
0.00065779368
0.00098851824
0.0013673911
0.0018194004
0.0023756621
0.0030711581
0.0039419405
0.0050209158
0.0063332657
0.0078921144
0.0096922911
0.011709068
0.013873566
0.016075886
0.018262946
0.020280349
0.021872399
0.022774788
0.022648603
0.021108571
0.01778996
0.012498662
0.0054638181
-0.0024176525
-0.0096414146
-0.014823811
-0.017497932
-0.018133439
-0.017650768
-0.016805917
-0.015949688
-0.01501213
-0.013636044
-0.011586977
-0.009051813
-0.0064698475
-0.004200706
-0.0023678362
-0.00094723515
0.00012781921
0.00090673045
0.001407767
0.0016272525
0.001561131
0.0012134377
0.00058442109
-0.00033861304
-0.0015914288
-0.0032298101
-0.0053074778
-0.00786311
-0.010903593
-0.014399392
-0.018279665
-0.022441623
-0.026769165
-0.03115116
-0.035490454
-0.039706751
-0.043740878
-0.047549823
-0.051104007
-0.054381912
-0.057366849
-0.060045028
-0.062403461
-0.064428296
-0.066102874
-0.067405903
-0.068309614
-0.068777441
-0.068760513
-0.068194733
-0.066991743
-0.065037673
-0.062160287
-0.058174645
-0.052687193
-0.045695015
-0.036803781
-0.032473056
-0.0290505
-0.026527496
-0.024533596
-0.022939931
-0.021558677
-0.020379815
-0.019269934
-0.018193719
-0.017085065
-0.015939127
-0.014646002
-0.012884907
-0.010498892
-0.0073807393
-0.0034413718
0.001363634
0.0070551195
0.013624215
0.021079945
0.02921506
0.037742722
0.04632869
0.054897878
0.063298966
0.071409566
0.079113514
0.086313957
0.092878926
0.098700649
0.10364325
0.10739174
0.1096419
0.10940887
0.10547509
0.09712037
0.083037134
0.061927706
0.033616508
-0.00024572288
-0.029691791
-0.048280489
-0.055706344
-0.055989671
-0.049821108
-0.047205522
-0.029202917
-0.015884837
-0.019188776
-0.018084696
-0.016124632
-0.010470747
-0.0045607361
-0.0010147168
0.00080253506
0.0017693546
0.0025194727
0.0031791673
0.0037959639
0.0043202988
0.0047460344
0.0050755022
0.0053065547
0.0054896937
0.0056342101
0.0057596129
0.0058566847
0.0059298211
0.0059695319
0.0059654034
0.0059017007
0.0057638287
0.0055442856
0.005239944
0.0048520043
0.0043930166
0.0038856944
0.003360546
0.0028546077
0.0024069442
0.0020508379
0.0018047777
0.0016654167
0.001611488
0.0016172017
0.0016578096
0.0017183752
0.0017912158
0.0018709482
0.0019559025
0.0020431199
0.0021322435
0.0022173582
0.0023084219
0.0023955743
0.0024772628
0.0025474732
0.0026007911
0.0026293487
0.0026273456
0.0025883214
0.0025064869
0.0023778428
0.0022005278
0.0019696283
0.0016831093
0.0013438079
0.00095862803
0.00054137917
0.00011451012
-0.00029114305
-0.00063586138
-0.00088150567
-0.00098889956
-0.00094513609
-0.00075334497
-0.00049574009
-0.00022428863
6.5063337e-05
0.000354839
0.00065868772
0.00098932488
0.0013681271
0.001820092
0.0023763362
0.0030718277
0.0039425937
0.0050215123
0.0063337346
0.0078923592
0.009692186
0.01170847
0.01387235
0.016073903
0.018260044
0.020276387
0.021867243
0.022768372
0.022641006
0.021100166
0.017781562
0.012491644
0.0054598914
-0.0024170683
-0.0096359155
-0.014814653
-0.017487601
-0.018124294
-0.017643998
-0.016801391
-0.01594658
-0.015009951
-0.01363504
-0.01158748
-0.0090536244
-0.0064723189
-0.0042032341
-0.0023701347
-0.00094926744
0.00012599327
0.00090505482
0.0014062354
0.0016259012
0.0015600037
0.0012125514
0.00058378613
-0.00033896209
-0.0015914091
-0.0032292953
-0.0053063263
-0.0078612057
-0.010900877
-0.014395885
-0.018275466
-0.022436881
-0.026764051
-0.031145834
-0.035485055
-0.039701381
-0.043735613
-0.047544707
-0.051099066
-0.054377169
-0.057362318
-0.060040715
-0.062399368
-0.064424424
-0.066099224
-0.067402479
-0.068306432
-0.068774528
-0.06875792
-0.068192549
-0.066990102
-0.065036818
-0.062160542
-0.058176811
-0.052692035
-0.045706451
-0.036818146
-0.032479931
-0.029051164
-0.026525403
-0.024529533
-0.022934593
-0.021552391
-0.020372685
-0.019261713
-0.018184303
-0.017074282
-0.015926489
-0.014629342
-0.012862037
-0.01046869
-0.0073422064
-0.003393906
0.0014202243
0.007120662
0.013698376
0.021161142
0.029300361
0.037828983
0.046414266
0.05498186
0.06338002
0.071486651
0.079185664
0.086380061
0.092937811
0.098751021
0.10368231
0.10741558
0.10964399
0.10938009
0.10540903
0.09701221
0.082883195
0.061736933
0.033415668
-0.00039674838
-0.029759301
-0.04828911
-0.0556925
-0.055974586
-0.049809801
-0.047203746
-0.029203164
-0.015884167
-0.019186515
-0.018078687
-0.016122704
-0.010481335
-0.0045780705
-0.0010301345
0.00079177687
0.0017619571
0.0025130579
0.0031730267
0.0037900545
0.0043151561
0.0047417481
0.0050722038
0.0053040879
0.0054877094
0.0056325384
0.0057581462
0.0058554531
0.0059288299
0.0059688763
0.0059652137
0.0059021412
0.0057650464
0.0055463793
0.0052429643
0.0048559195
0.0043976665
0.0038908101
0.0033657853
0.0028595853
0.0024112952
0.0020543002
0.0018072638
0.0016670296
0.0016124318
0.0016176904
0.0016580264
0.001718444
0.0017912175
0.001870933
0.001955911
0.0020431775
0.0021323791
0.0022175746
0.0023086048
0.002395685
0.0024772944
0.0025474134
0.0026006391
0.0026291122
0.002627029
0.0025879261
0.0025060166
0.0023773093
0.0021999367
0.0019689824
0.0016824251
0.00134311
0.00095795237
0.00054077767
0.00011405141
-0.00029137964
-0.00063579914
-0.00088108777
-0.00098810994
-0.00094401838
-0.00075207089
-0.00049449036
-0.0002230976
6.6177601e-05
0.00035584941
0.00065959757
0.0009901353
0.0013688527
0.0018207576
0.0023769674
0.0030724376
0.003943171
0.0050220188
0.0063341017
0.0078924947
0.0096919706
0.011707774
0.013871053
0.016071843
0.018257099
0.020272444
0.021862175
0.022762137
0.022633699
0.021092156
0.017773614
0.012484993
0.0054560322
-0.0024168835
-0.0096312069
-0.014806373
-0.017477908
-0.018115422
-0.017637225
-0.016796763
-0.015943434
-0.015007894
-0.013634278
-0.011588203
-0.0090555274
-0.0064747521
-0.004205665
-0.0023723339
-0.00095121725
0.00012423615
0.00090344463
0.001404774
0.0016246263
0.0015589586
0.0012117547
0.00058325443
-0.00033918396
-0.0015912287
-0.0032285827
-0.0053049424
-0.0078590432
-0.010897892
-0.014392117
-0.01827103
-0.022431937
-0.026758775
-0.031140384
-0.035479564
-0.039695949
-0.043730309
-0.047539566
-0.051094115
-0.054372427
-0.0573578
-0.060036425
-0.062395311
-0.064420599
-0.066095635
-0.067399134
-0.068303348
-0.068771741
-0.068755488
-0.068190572
-0.066988731
-0.065036323
-0.062161288
-0.058179638
-0.052697823
-0.045718962
-0.0368337
-0.03248792
-0.029052865
-0.026524126
-0.024526174
-0.022929874
-0.021546657
-0.020366059
-0.019253954
-0.018175297
-0.01706385
-0.015914139
-0.014612859
-0.012839164
-0.010438262
-0.0073031951
-0.0033456906
0.0014778385
0.007187482
0.013774047
0.021244052
0.029387459
0.03791703
0.046501597
0.055067543
0.063462697
0.071565262
0.079259227
0.086447446
0.092997824
0.098802345
0.10372207
0.10743979
0.10964592
0.10935057
0.10534151
0.096902008
0.082726992
0.061544664
0.033215862
-0.00054222813
-0.02981845
-0.048290461
-0.055674317
-0.0559574
-0.049797885
-0.047201413
-0.029202836
-0.015883355
-0.019183516
-0.018072196
-0.016120583
-0.01049229
-0.0045957093
-0.0010458671
0.00078068958
0.0017542832
0.0025063854
0.0031666325
0.0037838975
0.004309802
0.0047372927
0.0050687819
0.0053015315
0.005485652
0.0056308028
0.0057566204
0.0058541693
0.0059277963
0.0059681951
0.0059650246
0.0059026184
0.0057663446
0.0055486015
0.005246163
0.004860059
0.0044025755
0.0038962027
0.0033712976
0.0028648099
0.0024158477
0.0020579076
0.0018098406
0.0016686916
0.001613399
0.0016181884
0.001658245
0.0017185108
0.0017912152
0.0018709135
0.0019559164
0.002043235
0.0021325189
0.0022178011
0.0023087974
0.0023958043
0.0024773328
0.0025473588
0.002600491
0.0026288786
0.0026267141
0.0025875314
0.002505545
0.0023767726
0.0021993414
0.0019683303
0.0016817314
0.0013423982
0.00095725708
0.00054014915
0.00011355725
-0.00029165924
-0.00063578502
-0.00088071708
-0.00098735867
-0.0009429142
-0.00075077144
-0.00049319131
-0.00022185339
6.7343659e-05
0.00035690379
0.00066053855
0.00099096189
0.0013695774
0.0018214037
0.0023775599
0.0030729895
0.0039436718
0.005022432
0.0063343609
0.0078925102
0.009691629
0.011706956
0.013869644
0.016069667
0.018254062
0.02026846
0.021857117
0.022755986
0.022626569
0.021084418
0.017765976
0.012478554
0.0054520625
-0.0024173027
-0.0096275072
-0.014799163
-0.017468967
-0.018106847
-0.017630421
-0.016791992
-0.015940225
-0.015005964
-0.013633794
-0.011589198
-0.0090575709
-0.0064771845
-0.0042080259
-0.0023744571
-0.00095310513
0.00012252946
0.00090188444
0.0014033712
0.0016234209
0.0015579942
0.0012110521
0.00058283825
-0.00033925635
-0.0015908527
-0.0032276222
-0.005303258
-0.0078565368
-0.010894538
-0.014387976
-0.018266239
-0.02242667
-0.026753213
-0.031134688
-0.035473867
-0.039690347
-0.043724865
-0.047534304
-0.051089062
-0.054367604
-0.057353218
-0.06003209
-0.062391228
-0.064416769
-0.066092063
-0.067395833
-0.068300341
-0.06876907
-0.068753225
-0.068188832
-0.066987692
-0.065036285
-0.062162684
-0.058183362
-0.052704979
-0.045733256
-0.036851775
-0.032497942
-0.029056295
-0.026524198
-0.024523954
-0.022926134
-0.021541794
-0.020360224
-0.019246908
-0.018166919
-0.017053951
-0.015902202
-0.014596537
-0.012816055
-0.010407109
-0.0072628987
-0.0032955828
0.0015379747
0.0072574455
0.013853457
0.021331122
0.029478937
0.038009484
0.046593306
0.055157516
0.063549514
0.071647814
0.079336481
0.086518219
0.093060868
0.098856277
0.10376383
0.10746521
0.10964793
0.10931958
0.10527071
0.096786768
0.082564399
0.061346252
0.033013298
-0.00068261617
-0.029866271
-0.048280604
-0.055648826
-0.055936384
-0.049784808
-0.04719821
-0.029201912
-0.015882349
-0.019179485
-0.018064887
-0.016118004
-0.010503673
-0.0046138176
-0.0010620267
0.00076917405
0.0017462498
0.0024993697
0.003159897
0.003777406
0.0043041554
0.0047325955
0.005065174
0.0052988346
0.0054834798
0.005628969
0.0057550074
0.0058528116
0.0059267043
0.0059674788
0.0059648334
0.0059031376
0.005767737
0.0055509755
0.005249573
0.0048644655
0.004407794
0.0039019265
0.0033771374
0.0028703311
0.0024206427
0.00206169
0.0018125269
0.001670413
0.0016143941
0.001618697
0.0016584654
0.0017185748
0.0017912077
0.0018708881
0.0019559172
0.0020432917
0.0021326632
0.0022180402
0.002309002
0.0023959339
0.0024773787
0.0025473097
0.0026003463
0.0026286466
0.0026263992
0.002587135
0.0025050689
0.0023762291
0.0021987377
0.0019676672
0.0016810229
0.0013416664
0.00095653519
0.00053948594
0.00011301944
-0.00029199013
-0.00063582669
-0.00088039961
-0.00098664886
-0.0009418222
-0.00074943861
-0.00049183074
-0.00022054325
6.8573808e-05
0.00035801288
0.00066151908
0.00099181036
0.0013703039
0.0018220302
0.0023781103
0.0030734769
0.0039440863
0.0050227385
0.0063344948
0.0078923843
0.009691135
0.011705988
0.013868085
0.01606733
0.018250881
0.020264371
0.021851992
0.022749826
0.022619509
0.021076823
0.017758504
0.012472152
0.0054477546
-0.0024186179
-0.0096251665
-0.014793373
-0.017461036
-0.018098701
-0.01762362
-0.016787069
-0.015936948
-0.01500418
-0.013633632
-0.011590513
-0.0090597884
-0.0064796368
-0.0042103288
-0.0023765148
-0.00095494109
0.00012086406
0.000900367
0.0014020226
0.0016222832
0.0015571116
0.0012104487
0.00058254767
-0.00033916218
-0.0015902552
-0.0032263782
-0.0053012268
-0.0078536302
-0.010890751
-0.014383395
-0.018261025
-0.022421015
-0.026747309
-0.031128697
-0.035467919
-0.039684541
-0.043719248
-0.047528888
-0.05108388
-0.054362673
-0.05734855
-0.060027691
-0.062387102
-0.064412921
-0.066088502
-0.067392574
-0.068297414
-0.068766528
-0.068751152
-0.068187365
-0.066987039
-0.065036789
-0.062164856
-0.058188176
-0.052713873
-0.045750006
-0.036873704
-0.032511078
-0.029062344
-0.026526378
-0.024523542
-0.022923984
-0.021538377
-0.020355728
-0.019241103
-0.018159677
-0.017045074
-0.01589113
-0.014580742
-0.012792951
-0.010375326
-0.0072212431
-0.0032433233
0.001601081
0.0073311883
0.013937406
0.02142329
0.029575792
0.038107353
0.046690407
0.055252785
0.063641452
0.071735249
0.079418323
0.086593217
0.093127699
0.098913477
0.10380811
0.10749213
0.10965004
0.10928677
0.10519582
0.096665238
0.082393882
0.061140385
0.032807901
-0.00081531095
-0.029898006
-0.048254683
-0.05561255
-0.055909591
-0.0497699
-0.047193845
-0.029200376
-0.015881078
-0.019174068
-0.018056423
-0.016114653
-0.010515428
-0.0046324179
-0.0010785357
0.00075724531
0.0017378499
0.0024919895
0.0031527925
0.0037705505
0.0042981847
0.0047276253
0.0050613502
0.0052959711
0.0054811709
0.0056270194
0.0057532937
0.0058513702
0.0059255476
0.0059667241
0.0059646394
0.0059037004
0.0057692269
0.0055535059
0.0052532011
0.004869147
0.0044133308
0.0039079903
0.003383312
0.0028761535
0.0024256807
0.0020656437
0.001815316
0.0016721862
0.0016154107
0.001619212
0.0016586848
0.0017186341
0.0017911935
0.0018708556
0.0019559121
0.0020433462
0.0021328107
0.0022182923
0.0023092193
0.0023960744
0.0024774332
0.0025472671
0.0026002062
0.0026284179
0.002626086
0.0025867389
0.0025045905
0.0023756807
0.0021981275
0.0019669952
0.0016803011
0.0013409156
0.00095578634
0.00053878581
0.00011243317
-0.00029238013
-0.00063593507
-0.00088014887
-0.0009859952
-0.00094075586
-0.00074807942
-0.0004904099
-0.00021916691
6.9868835e-05
0.00035917682
0.00066253765
0.00099267716
0.0013710262
0.0018226278
0.0023786059
0.0030738832
0.0039443941
0.0050229141
0.0063344761
0.007892087
0.0096904569
0.011704835
0.013866344
0.016064803
0.018247522
0.020260141
0.021846757
0.022743611
0.022612462
0.0210693
0.017751095
0.012465629
0.0054428438
-0.0024212372
-0.0096247375
-0.014789611
-0.017454624
-0.018091303
-0.01761697
-0.016782056
-0.015933644
-0.015002594
-0.013633857
-0.011592192
-0.0090621958
-0.006482103
-0.00421256
-0.0023784937
-0.00095671441
0.00011924959
0.00089890272
0.00140074
0.0016212263
0.0015563249
0.0012099604
0.0005824021
-0.00033887697
-0.0015894056
-0.0032248138
-0.0052988072
-0.0078502802
-0.010886491
-0.014378338
-0.018255362
-0.022414959
-0.02674106
-0.031122416
-0.035461742
-0.039678561
-0.043713485
-0.047523347
-0.051078598
-0.054357667
-0.05734383
-0.060023263
-0.062382971
-0.064409093
-0.06608499
-0.0673894
-0.068294616
-0.068764169
-0.068749333
-0.068186246
-0.066986866
-0.065037951
-0.06216797
-0.05819431
-0.052724929
-0.045769911
-0.036900871
-0.032528525
-0.029072079
-0.026531624
-0.024525821
-0.022924251
-0.021537205
-0.020353346
-0.019237304
-0.018154324
-0.01703796
-0.015881632
-0.014566118
-0.012770414
-0.010343378
-0.0071785839
-0.003189152
0.0016670419
0.0074087113
0.014026
0.021520726
0.029678218
0.038210824
0.046793105
0.055353561
0.063738724
0.071827782
0.079504968
0.086672644
0.093198516
0.098974127
0.10385502
0.10752061
0.10965224
0.10925201
0.10511661
0.096537168
0.082215372
0.060927622
0.032601622
-0.00093609809
-0.029907962
-0.048207294
-0.05556164
-0.05587483
-0.049752427
-0.047187939
-0.029198209
-0.015879458
-0.019166818
-0.018046413
-0.016110134
-0.010527476
-0.0046515929
-0.0010953193
0.00074493476
0.0017290858
0.0024842293
0.0031452954
0.0037633039
0.0042918606
0.0047223531
0.0050572826
0.0052929166
0.0054787051
0.0056249376
0.0057514668
0.0058498364
0.0059243207
0.0059659281
0.0059644425
0.005904309
0.005770818
0.0055561982
0.0052570546
0.0048741127
0.0044191956
0.0039144033
0.0033898287
0.0028822806
0.0024309603
0.0020697627
0.0018181981
0.0016740005
0.0016164397
0.0016197267
0.001658899
0.001718686
0.0017911707
0.0018708141
0.001955899
0.0020433967
0.0021329602
0.0022185576
0.0023094499
0.0023962268
0.0024774971
0.0025472323
0.0026000727
0.0026281946
0.0026257769
0.0025863459
0.0025041129
0.0023751305
0.0021975141
0.0019663172
0.0016795687
0.0013401473
0.00095501076
0.00053804665
0.00011179314
-0.00029283836
-0.00063612346
-0.00087998182
-0.00098541687
-0.00093973399
-0.00074670581
-0.00048893392
-0.00021772736
7.1226539e-05
0.00036039306
0.00066359016
0.00099355615
0.0013717354
0.0018231846
0.002379031
0.0030741885
0.0039445709
0.0050229302
0.0063342724
0.0078915833
0.0096895575
0.011703462
0.01386438
0.016062052
0.018243947
0.020255727
0.02184136
0.022737276
0.022605346
0.021061747
0.017743609
0.012458773
0.0054369873
-0.0024256805
-0.0096269292
-0.01478867
-0.017450418
-0.018085102
-0.017610699
-0.016777048
-0.015930372
-0.015001269
-0.013634542
-0.011594282
-0.0090648105
-0.0064845696
-0.0042147036
-0.0023803789
-0.00095841315
0.00011769704
0.00089750384
0.0013995377
0.0016202657
0.0015556504
0.0012096056
0.0005824236
-0.00033837314
-0.0015882703
-0.0032228882
-0.0052959547
-0.0078464432
-0.010881717
-0.014372776
-0.018249235
-0.0224085
-0.026734478
-0.031115869
-0.035455383
-0.039672459
-0.043707617
-0.047517727
-0.051073265
-0.054352634
-0.057339107
-0.060018855
-0.062378885
-0.064405337
-0.066081582
-0.067386368
-0.068292007
-0.068762062
-0.068747849
-0.068185571
-0.066987291
-0.065039923
-0.062172232
-0.05820205
-0.05273867
-0.045793801
-0.036934853
-0.032551673
-0.029086763
-0.026541091
-0.024531867
-0.022927954
-0.021539265
-0.020354043
-0.019236462
-0.018151798
-0.017033527
-0.015874584
-0.014553453
-0.012749132
-0.010311838
-0.0071353619
-0.0031333695
0.0017356962
0.0074899846
0.014119328
0.021623582
0.029786383
0.038320067
0.046901581
0.055460033
0.063841526
0.071925609
0.07959661
0.086756692
0.093273499
0.099038388
0.10390466
0.10755069
0.10965451
0.10921518
0.10503285
0.096402315
0.082028833
0.060708588
0.032396476
-0.0010407615
-0.029890403
-0.048132756
-0.055491815
-0.055829513
-0.049731467
-0.047179986
-0.029195424
-0.015877377
-0.019157174
-0.018034382
-0.016103935
-0.010539696
-0.0046714929
-0.0011122933
0.00073227982
0.0017199634
0.0024760742
0.0031373805
0.0037556367
0.004285151
0.0047167475
0.005052942
0.0052896457
0.0054760615
0.0056227071
0.0057495141
0.0058482009
0.0059230174
0.0059650877
0.0059642423
0.0059049662
0.0057725156
0.0055590599
0.005261144
0.0048793753
0.0044254028
0.0039211798
0.0033966995
0.0028887198
0.0024364829
0.0020740412
0.0018211624
0.0016758433
0.0016174698
0.0016202329
0.0016591024
0.0017187271
0.0017911367
0.0018707616
0.0019558759
0.0020434413
0.0021331099
0.0022188365
0.0023096943
0.0023963919
0.0024775716
0.0025472068
0.0025999474
0.0026279788
0.0026254745
0.002585959
0.0025036391
0.0023745815
0.0021969006
0.0019656365
0.0016788283
0.0013393632
0.00095420827
0.0005372657
0.00011109297
-0.00029337548
-0.00063640725
-0.00087991812
-0.00098493634
-0.00093877929
-0.00074533327
-0.00048741057
-0.00021622965
7.2642925e-05
0.00036165741
0.00066467094
0.00099443964
0.0013724212
0.0018236869
0.0023793676
0.0030743702
0.0039445892
0.0050227543
0.0063338468
0.0078908326
0.0096883932
0.011701821
0.013862142
0.016059037
0.018240101
0.020251057
0.021835717
0.022730718
0.02259804
0.021054007
0.017735847
0.012451306
0.0054297583
-0.0024325742
-0.0096325971
-0.014791525
-0.017449286
-0.01808069
-0.017605113
-0.016772186
-0.015927213
-0.015000288
-0.013635749
-0.011596826
-0.0090676528
-0.0064870226
-0.0042167442
-0.0023821585
-0.00096002872
0.00011621485
0.00089618087
0.0013984288
0.001619416
0.0015551038
0.0012094026
0.00058263498
-0.00033762156
-0.0015868132
-0.0032205585
-0.0052926224
-0.0078420739
-0.010876391
-0.014366681
-0.018242632
-0.022401644
-0.026727586
-0.031109102
-0.035448911
-0.039666298
-0.043701698
-0.047512089
-0.051067943
-0.054347638
-0.057334443
-0.06001453
-0.062374907
-0.064401718
-0.066078344
-0.067383548
-0.068289665
-0.068760292
-0.068746795
-0.068185454
-0.066988454
-0.065042884
-0.062177889
-0.058211745
-0.052755721
-0.04582265
-0.036977434
-0.032582124
-0.029107886
-0.026556158
-0.024542981
-0.022936335
-0.021545767
-0.020358997
-0.019239743
-0.018153242
-0.017032888
-0.015871037
-0.014543684
-0.012729907
-0.010281355
-0.0070920659
-0.0030762971
0.0018068892
0.007574994
0.014217527
0.021732065
0.029900518
0.038435302
0.047016077
0.055572445
0.063950098
0.072028974
0.079693487
0.08684559
0.093352865
0.099106449
0.10395716
0.10758238
0.10965677
0.10917605
0.10494421
0.096260311
0.081834078
0.060483731
0.032194256
-0.0011254323
-0.029839842
-0.048025291
-0.055398433
-0.055770638
-0.049705858
-0.047169327
-0.029192034
-0.015874701
-0.019144447
-0.018019758
-0.016095406
-0.010551881
-0.004692223
-0.0011293703
0.00071933156
0.0017104964
0.0024675138
0.0031290248
0.0037475201
0.0042780247
0.004710778
0.0050483
0.0052861345
0.0054732204
0.005620312
0.0057474231
0.0058464545
0.0059216315
0.0059641995
0.0059640382
0.005905675
0.0057743252
0.0055620996
0.0052654813
0.00488495
0.0044319692
0.0039283365
0.0034039386
0.0028954804
0.0024422499
0.0020784729
0.0018241958
0.0016776988
0.001618487
0.0016207201
0.0016592884
0.001718753
0.0017910887
0.001870696
0.0019558407
0.0020434779
0.0021332582
0.0022191292
0.0023099533
0.0023965706
0.0024776578
0.0025471921
0.0025998324
0.002627773
0.0026251815
0.0025855814
0.0025031727
0.0023740372
0.0021962903
0.0019649563
0.0016780824
0.0013385648
0.00095337851
0.00053643969
0.00011032533
-0.0002940038
-0.00063680424
-0.00087998073
-0.00098458018
-0.00093791959
-0.00074398223
-0.0004858516
-0.00021468201
7.4111201e-05
0.00036296323
0.00066577205
0.00099531775
0.001373071
0.0018241183
0.0023795951
0.0030744022
0.0039444175
0.0050223489
0.0063331569
0.007889788
0.0096869125
0.011699857
0.013859566
0.016055708
0.018235917
0.020246037
0.021829718
0.022723803
0.022590374
0.021045876
0.01772755
0.012442885
0.0054206531
-0.0024426434
-0.0096427414
-0.01479934
-0.0174523
-0.018078823
-0.017600624
-0.01676766
-0.015924277
-0.014999745
-0.013637532
-0.011599871
-0.0090707245
-0.0064894471
-0.0042186668
-0.0023838239
-0.00096155556
0.00011480919
0.00089494297
0.0013974255
0.0016186912
0.0015547007
0.00120937
0.00058305998
-0.00033659148
-0.0015849963
-0.0032177793
-0.0052887606
-0.0078371273
-0.010870477
-0.014360033
-0.018235551
-0.022394414
-0.026720425
-0.031102198
-0.035442423
-0.039660152
-0.043695809
-0.047506516
-0.051062713
-0.054342759
-0.05732992
-0.060010368
-0.062371115
-0.064398313
-0.066075356
-0.067381023
-0.068287677
-0.068758956
-0.068746286
-0.068186031
-0.066990525
-0.065047047
-0.062185238
-0.058223814
-0.052776815
-0.045857577
-0.03703061
-0.032621714
-0.029137185
-0.026578464
-0.024560725
-0.022950895
-0.021558182
-0.020369649
-0.01924856
-0.018160042
-0.017037385
-0.015872244
-0.014537916
-0.012713676
-0.010252687
-0.0070492553
-0.0030182965
0.0018804471
0.0076637734
0.014320746
0.0218464
0.030020861
0.038556767
0.047136847
0.055691052
0.064064699
0.072138128
0.079795848
0.08693957
0.093436829
0.099178488
0.10401259
0.10761568
0.10965893
0.10913437
0.10485028
0.096110701
0.081630834
0.060253375
0.031996497
-0.0011867003
-0.029751261
-0.047879266
-0.055276618
-0.055694828
-0.049674172
-0.047155116
-0.029188064
-0.015871265
-0.019127798
-0.018001857
-0.016083755
-0.010563737
-0.0047138371
-0.0011464896
0.00070615802
0.0017007094
0.0024585449
0.0031202095
0.0037389272
0.004270452
0.0047044153
0.00504333
0.0052823603
0.0054701632
0.0056177372
0.0057451821
0.0058445884
0.0059201565
0.0059632598
0.0059638295
0.0059064385
0.0057762533
0.0055653265
0.0052700796
0.0048908532
0.0044389135
0.0039358922
0.0034115618
0.0029025719
0.0024482627
0.0020830492
0.0018272821
0.0016795477
0.0016194735
0.0016211749
0.0016594481
0.0017187578
0.0017910231
0.0018706147
0.0019557909
0.0020435042
0.0021334033
0.0022194358
0.0023102274
0.0023967639
0.0024777569
0.00254719
0.00259973
0.00262758
0.0026249012
0.0025852167
0.0025027176
0.0023735014
0.0021956869
0.0019642802
0.0016773342
0.0013377538
0.00095252107
0.00053556493
0.00010948186
-0.00029473735
-0.00063733499
-0.00088019646
-0.00098437996
-0.00093718899
-0.00074267952
-0.00048427411
-0.00021309697
7.5620826e-05
0.00036430058
0.00066688258
0.00099617784
0.0013736695
0.0018244598
0.0023796894
0.0030742545
0.0039440193
0.0050216712
0.0063321536
0.007888395
0.0096850549
0.011697504
0.013856577
0.016051991
0.018231314
0.020240546
0.021823221
0.022716354
0.022582136
0.021037097
0.017718408
0.012433114
0.0054091088
-0.0024567013
-0.0096584987
-0.014813469
-0.017460752
-0.018080457
-0.017597771
-0.016763729
-0.015921704
-0.014999737
-0.013639961
-0.011603441
-0.0090739998
-0.0064918214
-0.0042204561
-0.0023853688
-0.00096299116
0.00011348401
0.00089379817
0.0013965399
0.0016181053
0.0015544564
0.0012095267
0.00058372359
-0.00033525019
-0.0015827797
-0.0032145026
-0.0052843181
-0.0078315593
-0.010863942
-0.014352821
-0.018228011
-0.022386854
-0.026713066
-0.031095292
-0.035436051
-0.039654113
-0.043690059
-0.047501115
-0.051057684
-0.054338103
-0.057325641
-0.060006469
-0.06236761
-0.064395222
-0.066072718
-0.067378897
-0.068286155
-0.068758177
-0.068746458
-0.068187463
-0.066993702
-0.065052668
-0.062194629
-0.058238754
-0.052802793
-0.045899842
-0.037096579
-0.032672519
-0.029176675
-0.026609937
-0.02458696
-0.022973439
-0.021578281
-0.020387735
-0.019264602
-0.018173866
-0.017048623
-0.015879686
-0.014537437
-0.012701523
-0.010226694
-0.0070075628
-0.0029597741
0.0019561739
0.0077563028
0.014429138
0.021966809
0.030147657
0.038684703
0.047264144
0.055816112
0.064185581
0.07225332
0.079903931
0.087038858
0.093525592
0.099254665
0.10407099
0.10765057
0.10966083
0.10908978
0.10475056
0.095952956
0.081418724
0.060017691
0.031804429
-0.0012217691
-0.029620352
-0.047689427
-0.055121446
-0.055598404
-0.049634705
-0.047136289
-0.029183554
-0.015866853
-0.019106218
-0.017979857
-0.016068015
-0.01057489
-0.0047364104
-0.0011636344
0.00069284548
0.0016906392
0.0024491717
0.0031109202
0.0037298338
0.0042624049
0.0046976321
0.0050380071
0.0052783023
0.0054668727
0.005614969
0.0057427799
0.0058425939
0.0059185862
0.0059622645
0.0059636149
0.0059072599
0.0057783065
0.0055687506
0.005274953
0.0048971029
0.0044462561
0.0039438673
0.0034195866
0.0029100049
0.0024545216
0.0020877596
0.001830401
0.0016813657
0.001620407
0.0016215803
0.0016595702
0.001718734
0.0017909352
0.001870515
0.001955724
0.002043518
0.0021335433
0.0022197564
0.0023105173
0.0023969728
0.0024778702
0.0025472023
0.0025996427
0.0026274027