/*--------------------------------*- C++ -*----------------------------------*\
| =========                 |                                                 |
| \\      /  F ield         | OpenFOAM: The Open Source CFD Toolbox           |
|  \\    /   O peration     | Version:  2.4.0                                 |
|   \\  /    A nd           | Web:      www.OpenFOAM.org                      |
|    \\/     M anipulation  |                                                 |
\*---------------------------------------------------------------------------*/
FoamFile
{
    version     2.0;
    format      ascii;
    class       volVectorField;
    location    "230";
    object      U;
}
// * * * * * * * * * * * * * * * * * * * * * * * * * * * * * * * * * * * * * //

dimensions      [0 1 -1 0 0 0 0];

internalField   nonuniform List<vector> 
32000
(
(0.0067617476 3.4087308e-05 -1.4594558e-21)
(0.0046888856 1.4317038e-06 -1.5072842e-22)
(0.0064041535 -0.00017564697 -3.7141917e-22)
(0.0046325454 -0.00035968669 -1.0788835e-20)
(0.0025864734 -0.00039207762 2.5107254e-20)
(-0.00013153672 2.5412088e-05 6.3011242e-20)
(-0.0018843343 0.00066533815 -1.0685716e-20)
(-0.0020627215 0.00097530288 -1.4543983e-21)
(-0.0016122418 0.0009254615 1.0284836e-20)
(-0.0012631743 0.00082865061 -1.1777466e-20)
(-0.0010835635 0.00078104943 -1.7441536e-20)
(-0.00096300289 0.00074188544 -4.8944503e-20)
(-0.00085999235 0.00069463883 -5.8477629e-20)
(-0.00075474129 0.00062932504 -3.9745163e-20)
(-0.00065687458 0.00055820723 3.7132591e-22)
(-0.00056497615 0.00048336907 -2.4548164e-20)
(-0.0004874267 0.00041481039 -3.6342324e-21)
(-0.00042931874 0.00036001121 2.2054381e-20)
(-0.00037947827 0.00031327939 2.5729494e-20)
(-0.00033131956 0.0002696328 3.9346705e-20)
(-0.00027978582 0.0002247611 2.5086531e-20)
(-0.00022547928 0.00017911014 -2.364959e-20)
(-0.0001630713 0.00012839431 -8.9297133e-20)
(-9.0368445e-05 7.0865072e-05 2.5772971e-20)
(-4.3361063e-06 4.1020226e-06 3.3765026e-20)
(9.673857e-05 -7.3400775e-05 -8.5998265e-20)
(0.00020795507 -0.00015811295 4.597695e-20)
(0.00032428015 -0.00024559068 4.8047568e-20)
(0.000440091 -0.00032990157 -3.618625e-20)
(0.00054722531 -0.00040350295 7.8291814e-20)
(0.00063776924 -0.0004595846 -8.5382632e-21)
(0.00070311975 -0.00049169435 4.1204206e-20)
(0.00073363168 -0.00049393894 4.7135832e-20)
(0.00072202892 -0.00046376524 -2.365914e-20)
(0.00066659367 -0.00040393469 -3.9319507e-20)
(0.00057267278 -0.00032309181 1.5698026e-20)
(0.00045335537 -0.00023510423 -4.9939823e-21)
(0.00032349206 -0.0001525618 -1.146336e-20)
(0.00019784079 -8.3757803e-05 1.743563e-20)
(8.7085534e-05 -3.2570548e-05 -6.1422827e-21)
(-6.6703229e-06 2.1103499e-06 -5.4117741e-21)
(-8.4771769e-05 2.2926434e-05 -1.9112715e-20)
(-0.0001483796 3.2328654e-05 -6.0525165e-21)
(-0.00019954723 3.2785024e-05 1.5789719e-21)
(-0.00024141228 2.6538976e-05 -1.0475861e-20)
(-0.00027301996 1.5000127e-05 -3.7794111e-22)
(-0.00030302884 2.1273978e-06 1.6048112e-22)
(-0.00032877008 1.4972663e-07 -1.0654648e-25)
(-0.00033793192 8.8954869e-08 1.4029491e-24)
(-0.00033241331 1.9620796e-08 -1.4296355e-24)
(-0.00030894399 -6.0069913e-08 9.0993509e-25)
(-0.00026721901 -1.4228345e-07 -2.1326454e-25)
(-0.00020988106 -2.1846817e-07 -1.5381467e-24)
(-0.00014043562 -2.9298901e-07 9.2964103e-25)
(-5.9608707e-05 -3.6674516e-07 -1.4533667e-26)
(3.0610382e-05 -4.3492129e-07 3.2440532e-25)
(0.00012794875 -4.9405191e-07 -3.2890976e-25)
(0.00022916101 -5.5132266e-07 1.002952e-24)
(0.00033482829 -6.0188023e-07 -1.3500358e-25)
(0.00044139939 -6.3356583e-07 -8.3543819e-25)
(0.00054410728 -6.3945902e-07 1.3763274e-25)
(0.00063703044 -6.0647273e-07 -1.2814907e-25)
(0.00071122483 -5.2051104e-07 -9.501283e-26)
(0.00075555365 -3.6767576e-07 2.3172607e-26)
(0.00075590323 -1.4551423e-07 9.5259711e-26)
(0.00070044989 1.389293e-07 1.8635442e-25)
(0.00057845926 4.595387e-07 -1.3807142e-25)
(0.00039117239 7.6939955e-07 1.3131576e-25)
(0.00014389568 9.9934687e-07 -3.7207619e-25)
(-0.00012893568 1.029996e-06 2.7531181e-26)
(-0.00038178715 9.6886735e-07 4.3116314e-27)
(-0.00061298612 9.2616612e-07 5.2581965e-26)
(-0.00083241254 8.6234474e-07 3.9909873e-26)
(-0.0010291127 8.0438279e-07 4.356927e-26)
(-0.0012084151 7.5297155e-07 -8.1503311e-26)
(-0.0013679983 7.1135276e-07 -1.8738633e-25)
(-0.001509429 6.8728557e-07 1.4444115e-25)
(-0.0016359541 6.8956349e-07 -1.7358129e-25)
(-0.001752732 7.1715499e-07 2.9703681e-25)
(-0.0018629393 7.5666953e-07 3.2817304e-27)
(-0.0019647201 7.8489167e-07 -1.603514e-27)
(-0.0020501183 7.7458869e-07 1.510805e-24)
(-0.00210466 6.9631283e-07 -1.1007552e-24)
(-0.0021075897 5.3429245e-07 -3.5668097e-25)
(-0.0020348692 2.4887189e-07 -3.3182932e-25)
(-0.0018520075 -1.8880798e-07 1.7524337e-24)
(-0.0015273816 -7.5166781e-07 -1.0364248e-24)
(-0.0010446602 -1.4061773e-06 -1.3340931e-24)
(-0.00036480438 -2.2633276e-06 6.5417421e-25)
(0.00055201049 -3.3135384e-06 -3.4528469e-25)
(0.0017376465 -4.4914165e-06 -3.3982589e-25)
(0.0032157729 -5.7843794e-06 1.6470131e-24)
(0.0049962674 -7.0571281e-06 -1.3133255e-24)
(0.0070361235 -8.0192346e-06 2.4962134e-24)
(0.0091984776 -8.1847e-06 -5.006976e-25)
(0.011201833 -6.906372e-06 -3.5995794e-25)
(0.012605701 -3.7229685e-06 -2.1925633e-25)
(0.012927599 1.0383944e-06 -1.4685268e-25)
(0.011913092 5.9692852e-06 1.2016677e-25)
(0.0097200767 9.1815196e-06 -1.7359615e-26)
(0.0069810554 9.6898377e-06 -6.8924874e-26)
(0.0044135504 8.0048467e-06 -1.5715281e-25)
(0.0024674825 5.5239881e-06 6.0984999e-25)
(0.0011948598 3.4878549e-06 9.650301e-26)
(0.00036577882 2.4427466e-06 2.5970478e-25)
(-0.00029062205 2.0021009e-06 -6.9769943e-27)
(-0.00081150913 1.2778008e-06 -8.2412341e-26)
(-0.0010402755 -3.6424173e-08 -6.7719602e-25)
(-0.00089048778 -1.4179929e-06 -5.1661132e-25)
(-0.00045077723 -2.2479971e-06 1.9765856e-25)
(9.614686e-05 -2.4091413e-06 6.703836e-25)
(0.00062351809 -2.207575e-06 -1.6330847e-25)
(0.0010918833 -1.9318232e-06 -1.16857e-25)
(0.0015090091 -1.7140254e-06 -2.8698817e-26)
(0.0018969155 -1.5662563e-06 1.1469505e-26)
(0.002269536 -1.4423277e-06 -9.4717608e-27)
(0.0026271123 -1.2908725e-06 -2.3917698e-25)
(0.0029600706 -1.0957768e-06 2.1650967e-25)
(0.0032623673 -8.8432127e-07 1.2004106e-25)
(0.0035370256 -6.7327626e-07 -1.1805946e-25)
(0.003787272 -4.495078e-07 2.930468e-26)
(0.0040107651 -1.7346867e-07 -2.8184087e-25)
(0.0041932882 2.0662673e-07 -1.7457176e-25)
(0.0043105546 7.1091523e-07 -1.8690083e-25)
(0.0043358722 1.3373219e-06 1.3194837e-24)
(0.0042477138 2.052576e-06 1.661809e-25)
(0.0040357396 2.7836744e-06 5.2518759e-25)
(0.0037030865 3.4619309e-06 4.866065e-25)
(0.0032659726 4.027664e-06 5.2034649e-25)
(0.0027488011 4.4483144e-06 5.7590509e-25)
(0.0021770097 4.7201178e-06 -8.6182847e-24)
(0.0015746722 4.8593989e-06 1.0398358e-23)
(0.00095904934 4.8902195e-06 -1.138582e-23)
(0.00034355315 4.8389873e-06 6.5500696e-24)
(-0.00026503307 4.7341402e-06 -7.1533523e-24)
(-0.00086479324 4.592495e-06 5.4686833e-17)
(-0.0014548625 4.4241111e-06 5.8268239e-17)
(-0.0020360385 4.2368273e-06 8.7687783e-24)
(-0.0026110204 4.0379897e-06 -6.4244167e-17)
(-0.0031840289 3.8317492e-06 -6.6859511e-17)
(-0.0037607118 3.6214952e-06 -3.6684647e-23)
(-0.0043480131 3.4067058e-06 9.5928239e-24)
(-0.0049537083 3.1845344e-06 -1.8522415e-23)
(-0.0055860778 2.9483441e-06 9.8363697e-24)
(-0.0062536856 2.6867279e-06 2.1104927e-23)
(-0.0069642947 2.3816711e-06 -3.9369212e-23)
(-0.0077249585 2.0063242e-06 3.0426632e-23)
(-0.0085385465 1.5190562e-06 -3.8174443e-23)
(-0.0094074062 8.5310809e-07 6.6650485e-23)
(-0.010310324 -1.070965e-07 -3.6564133e-23)
(-0.011239513 -1.577944e-06 -7.3281135e-24)
(-0.012015338 -4.0540479e-06 1.1734362e-24)
(-0.012577394 -8.3465323e-06 1.3406234e-24)
(-0.011178319 -8.5431203e-05 2.2768753e-21)
(-0.0089340398 -0.00049275524 1.3986535e-19)
(-0.0079557315 -0.00087357683 1.9080378e-20)
(-0.0071510089 -0.0011724212 -3.494709e-20)
(-0.0066216935 -0.0014416499 2.6472797e-20)
(-0.0062659663 -0.0016953559 -1.4669478e-19)
(-0.0060380548 -0.0019456887 -1.0174127e-19)
(-0.0059069344 -0.0022051135 1.9264264e-19)
(-0.0058699211 -0.0024840236 -3.9169168e-20)
(-0.0058955494 -0.002781932 -7.044845e-20)
(-0.0059664157 -0.0030979744 -6.2551455e-20)
(-0.0060905825 -0.0034421254 1.9836434e-19)
(-0.0063279289 -0.0038456397 8.1704823e-20)
(-0.0066535693 -0.0042873437 1.5979528e-20)
(-0.0069945341 -0.00472395 1.460743e-19)
(-0.0073233466 -0.0051360139 9.8018698e-20)
(-0.0076201244 -0.0055049543 -2.5975823e-20)
(-0.0078710491 -0.0058161704 -1.8026722e-20)
(-0.0080677667 -0.0060586147 -1.6866999e-21)
(-0.0082062266 -0.0062253388 2.4179022e-19)
(-0.0082517712 -0.0062893069 -1.8846501e-19)
(-0.0081528713 -0.0062301405 8.8099117e-20)
(-0.0078933898 -0.0060550134 3.1133728e-19)
(-0.0075119149 -0.0058037583 -9.1053474e-19)
(-0.0070576033 -0.0054973549 -9.4268287e-20)
(-0.0065307058 -0.0051363475 -8.8779197e-19)
(-0.005945561 -0.004729225 -1.2209098e-19)
(-0.0053123805 -0.0042799671 -3.0191042e-20)
(-0.0046342842 -0.003786524 5.9529912e-19)
(-0.0039138331 -0.0032475266 9.4857996e-19)
(-0.003156447 -0.0026579392 2.421372e-19)
(-0.0023441985 -0.0019847871 -1.3321101e-18)
(-0.0014192032 -0.0011944794 -3.7346632e-19)
(-2.2357804e-05 -1.7212466e-05 8.0803305e-19)
(0.0015562694 0.0012444394 -8.5069169e-19)
(0.0034613893 0.0026361392 2.1586484e-19)
(0.0058304826 0.0041526058 2.8544048e-19)
(0.0088649697 0.005749747 6.5710135e-19)
(0.012551735 0.0071349975 -3.8569269e-19)
(0.016608607 0.0078099973 1.063741e-19)
(0.019440575 0.0068954738 1.3663954e-22)
(0.019298179 0.0047047097 -1.8918844e-21)
(0.016689299 0.0025177212 4.8121689e-20)
(0.013179489 0.00103819 2.4566192e-20)
(0.0093481514 0.00026439391 -2.6259175e-21)
(0.0073526862 2.1679829e-06 1.3755809e-22)
(0.0040110426 -2.0085621e-05 3.7666493e-22)
(0.020465333 9.8090868e-05 3.4628379e-21)
(0.014689303 7.1926185e-06 3.0715975e-22)
(0.01939436 -0.00053034569 8.8300238e-21)
(0.01429654 -0.0010711628 2.9445142e-20)
(0.0082203019 -0.001184523 -7.0912664e-21)
(7.0901179e-05 4.195473e-05 -1.1554785e-19)
(-0.0054097328 0.0019698879 -6.9685544e-21)
(-0.0061414407 0.0029304114 5.4266134e-21)
(-0.0048617982 0.0027994581 -6.445776e-21)
(-0.0038254636 0.0025153957 6.4630117e-21)
(-0.0032824003 0.0023730976 2.892786e-20)
(-0.0029169783 0.0022548862 6.1952915e-20)
(-0.0026057194 0.0021119085 1.201154e-19)
(-0.002288994 0.001914539 9.6993847e-21)
(-0.001994348 0.0016992424 -2.8700984e-20)
(-0.0017177453 0.0014725965 7.2816443e-20)
(-0.0014834212 0.0012645262 1.1826369e-19)
(-0.0013069558 0.0010976512 1.1991746e-20)
(-0.0011555033 0.00095521809 6.6952447e-20)
(-0.0010092795 0.00082216319 4.2247509e-20)
(-0.00085317254 0.0006855563 1.1979896e-19)
(-0.00068898334 0.00054667917 -7.060552e-20)
(-0.00050106678 0.00039272102 1.1556274e-19)
(-0.00028293345 0.00021842717 2.9571267e-20)
(-2.5559743e-05 1.6532326e-05 4.7996204e-20)
(0.00027672627 -0.0002176983 3.0924143e-20)
(0.00060954279 -0.0004736815 -1.7596028e-19)
(0.00095781406 -0.00073800386 -1.7943875e-19)
(0.001304962 -0.00099282869 6.9964745e-20)
(0.0016269777 -0.0012155176 -1.1003361e-19)
(0.00190053 -0.0013856065 -1.6656325e-20)
(0.0021001848 -0.0014836666 -1.4639126e-20)
(0.0021971491 -0.0014918756 -2.6229381e-20)
(0.0021692372 -0.0014023579 2.5435118e-20)
(0.0020103361 -0.0012231341 9.2745081e-21)
(0.0017349164 -0.00097989393 -4.0675613e-20)
(0.0013807814 -0.00071423595 2.0880889e-20)
(0.00099194902 -0.00046431699 1.0994699e-20)
(0.00061307519 -0.00025549252 1.4412368e-21)
(0.00027731313 -9.9786886e-05 -4.3102522e-21)
(-7.7793023e-06 5.8891657e-06 9.4096697e-21)
(-0.00024574303 6.943207e-05 2.4421664e-20)
(-0.00043970001 9.8204881e-05 2.2827028e-21)
(-0.00059582775 9.9748786e-05 -2.6546522e-21)
(-0.00072364952 8.0859262e-05 5.5668942e-21)
(-0.00082061089 4.5934569e-05 3.9115396e-22)
(-0.00091191803 6.9396627e-06 3.7152893e-23)
(-0.00098994169 6.7967356e-07 -6.7958763e-25)
(-0.0010186047 8.2253967e-08 2.2651347e-24)
(-0.0010029935 -5.5535718e-07 -2.714719e-24)
(-0.00093350358 -1.2573258e-06 6.998019e-25)
(-0.00080934505 -1.9170806e-06 2.0873092e-24)
(-0.00063862114 -2.4554186e-06 -1.6096663e-24)
(-0.00043188371 -2.9159927e-06 1.1213904e-25)
(-0.00019138114 -3.3247376e-06 1.0867228e-25)
(7.6990066e-05 -3.6501766e-06 3.4668719e-25)
(0.00036666786 -3.8684251e-06 -1.6245315e-25)
(0.00066765122 -4.0407101e-06 2.7365377e-25)
(0.00098159613 -4.1508926e-06 -1.6357403e-24)
(0.0012983243 -4.0983535e-06 1.6092481e-24)
(0.0016039888 -3.8398448e-06 3.604986e-26)
(0.0018813305 -3.289857e-06 -8.4425759e-25)
(0.0021043047 -2.3481469e-06 2.433048e-25)
(0.0022402737 -9.1518897e-07 4.7113004e-26)
(0.0022476546 1.0208208e-06 -1.2681659e-25)
(0.0020909426 3.3893986e-06 5.9912735e-26)
(0.0017375325 5.9495143e-06 2.7621787e-25)
(0.0011890125 8.3692744e-06 -3.3287939e-26)
(0.00045870541 1.004159e-05 -4.4299975e-25)
(-0.00035678212 1.0101823e-05 3.754767e-26)
(-0.0011236349 9.3247035e-06 3.5987157e-25)
(-0.0018279997 8.7322779e-06 -1.8763204e-25)
(-0.002497291 8.0514031e-06 -5.9076597e-26)
(-0.0030976013 7.3037778e-06 1.6869546e-25)
(-0.0036422537 6.586915e-06 -2.8716601e-25)
(-0.004123753 5.8621533e-06 -4.0683155e-26)
(-0.0045458574 5.2251763e-06 1.4028194e-25)
(-0.0049177725 4.7522634e-06 -1.5779095e-25)
(-0.0052544488 4.4399796e-06 -2.5569674e-25)
(-0.0055651937 4.1541847e-06 -8.4785114e-25)
(-0.0058444976 3.6794022e-06 8.9131523e-25)
(-0.0060689046 2.7712598e-06 1.2950559e-24)
(-0.0061958201 1.1823738e-06 -1.8509267e-24)
(-0.0061645022 -1.2592855e-06 -1.6207245e-26)
(-0.005904468 -4.8250569e-06 -6.7576828e-25)
(-0.0053158157 -9.6784697e-06 1.5006391e-24)
(-0.004309155 -1.5491202e-05 2.1133601e-24)
(-0.0028324734 -2.2266389e-05 -7.2703148e-25)
(-0.0007705779 -3.0636445e-05 -3.1163875e-24)
(0.0019800176 -4.0407372e-05 7.842976e-24)
(0.0055083073 -5.117207e-05 -6.6137167e-24)
(0.0098797028 -6.2619265e-05 3.2089754e-24)
(0.015114075 -7.3430378e-05 -1.2826999e-24)
(0.021078202 -8.0813224e-05 9.5199384e-25)
(0.027370712 -8.0191e-05 7.2994087e-27)
(0.033182481 -6.5702492e-05 4.4106509e-26)
(0.037260744 -3.3387897e-05 1.0709709e-25)
(0.038239995 1.3334569e-05 -1.5640253e-25)
(0.035388744 6.1939304e-05 2.0243174e-25)
(0.02909844 9.5112923e-05 -3.9613014e-26)
(0.021126483 0.00010220784 2.4084153e-25)
(0.013540032 8.6811728e-05 2.4305393e-25)
(0.0076983551 6.1872738e-05 -7.5230483e-25)
(0.0038209576 4.0368426e-05 6.0343288e-26)
(0.0012809319 2.8492835e-05 4.605721e-26)
(-0.00068881269 2.2632182e-05 1.4881358e-24)
(-0.0021900774 1.4455285e-05 -1.9716828e-24)
(-0.00279395 1.4641846e-06 7.2035451e-25)
(-0.0022954653 -1.1516898e-05 -1.1343674e-24)
(-0.00097770655 -1.9198168e-05 1.9632085e-24)
(0.00063009196 -2.0820886e-05 -1.6322631e-24)
(0.0021722028 -1.9244366e-05 8.6780018e-25)
(0.0035423572 -1.7081226e-05 -8.0968546e-26)
(0.0047653625 -1.5512403e-05 -1.1003015e-25)
(0.0059040923 -1.4643887e-05 2.5788537e-25)
(0.0069968285 -1.4051609e-05 -1.7779354e-25)
(0.0080427282 -1.3274313e-05 1.7746383e-25)
(0.0090135871 -1.217996e-05 1.7260722e-25)
(0.0098913037 -1.1018295e-05 -1.5580538e-25)
(0.010683294 -9.9700625e-06 -1.744995e-25)
(0.011396349 -8.9327739e-06 -3.3213068e-26)
(0.012019743 -7.5759671e-06 -8.3970932e-25)
(0.012508758 -5.4673862e-06 2.444542e-24)
(0.012790939 -2.3814883e-06 -6.691637e-26)
(0.01278866 1.640126e-06 2.5983095e-25)
(0.012441618 6.2852654e-06 9.2070386e-26)
(0.011724686 1.1061083e-05 -1.7918268e-24)
(0.010653373 1.5454612e-05 1.2167615e-24)
(0.009280715 1.9052554e-05 -3.2577298e-24)
(0.0076819731 2.1673855e-05 -1.5759453e-24)
(0.0059332186 2.3323825e-05 1.41886e-24)
(0.0041054692 2.4168009e-05 -5.6718119e-24)
(0.0022484685 2.4409077e-05 -2.6309051e-24)
(0.00040016841 2.4252985e-05 -2.923742e-24)
(-0.0014210032 2.3919995e-05 3.4552063e-23)
(-0.0032110783 2.3527212e-05 -4.8201432e-23)
(-0.0049684465 2.3128604e-05 4.6246523e-23)
(-0.0066961928 2.2791752e-05 -2.5957328e-23)
(-0.0084028716 2.2582122e-05 -2.8963417e-24)
(-0.010101405 2.255553e-05 -9.4520423e-24)
(-0.011808772 2.2764168e-05 -3.3362497e-24)
(-0.013545575 2.3246834e-05 2.4408783e-23)
(-0.015334663 2.4027377e-05 2.9871789e-23)
(-0.017200065 2.5117598e-05 -3.5651865e-23)
(-0.019166146 2.6504231e-05 -9.8825036e-24)
(-0.021254305 2.8148479e-05 4.0525887e-24)
(-0.023482669 2.995679e-05 2.3002859e-23)
(-0.025855898 3.1800204e-05 -3.1237177e-24)
(-0.028373576 3.3271041e-05 -3.0839032e-24)
(-0.030966022 3.394163e-05 1.5966979e-23)
(-0.033587178 3.1402386e-05 -4.183777e-24)
(-0.03571368 2.3183514e-05 7.2617533e-25)
(-0.037113327 -1.3196029e-05 -5.0242025e-23)
(-0.033086121 -0.00028595152 -1.0272237e-22)
(-0.026721857 -0.0015167057 5.1156743e-21)
(-0.02386013 -0.0026533796 2.4225424e-19)
(-0.021525474 -0.0035613817 -9.7114575e-20)
(-0.019987328 -0.0043802486 1.3636356e-19)
(-0.018955466 -0.005154678 2.2103976e-19)
(-0.018298524 -0.0059202623 3.7842462e-19)
(-0.017926744 -0.0067141511 -3.0092095e-19)
(-0.017829665 -0.007566304 -3.0002466e-20)
(-0.017917106 -0.0084761849 3.2740781e-19)
(-0.018138954 -0.0094411358 5.6453673e-20)
(-0.01851968 -0.010490512 1.6246242e-19)
(-0.01922264 -0.011711638 -3.2063441e-19)
(-0.020170357 -0.013039754 6.6580016e-20)
(-0.021154374 -0.014348073 -1.3900258e-19)
(-0.022095272 -0.015578165 -9.0204086e-20)
(-0.022935748 -0.016674888 5.4693001e-20)
(-0.023636571 -0.017595131 2.898094e-20)
(-0.024174117 -0.018306305 -4.9615704e-20)
(-0.02453471 -0.018786959 -3.2980238e-19)
(-0.024618831 -0.018958387 7.6904876e-21)
(-0.024282246 -0.018764177 -2.2704899e-19)
(-0.023482559 -0.018228069 -1.2851281e-19)
(-0.022329533 -0.01746652 -1.9876201e-19)
(-0.020962681 -0.016539569 1.8404458e-19)
(-0.019383887 -0.01544997 -6.6619331e-19)
(-0.017634676 -0.014222424 1.1851037e-19)
(-0.01574413 -0.012868308 5.3242363e-19)
(-0.01372119 -0.011381309 -1.5544469e-18)
(-0.011573061 -0.0097568539 -6.3405968e-19)
(-0.0093139354 -0.0079784961 -8.3353388e-19)
(-0.0068907863 -0.0059477868 2.1225083e-19)
(-0.0041231701 -0.0035617583 1.2896131e-18)
(5.8703733e-05 -6.6183849e-06 -8.0816835e-19)
(0.0047342682 0.0037781256 -6.1805889e-19)
(0.010360086 0.0079416255 1.6898266e-18)
(0.017341905 0.012464703 -1.8290492e-18)
(0.026252049 0.017204477 -1.3022947e-18)
(0.037041712 0.021288631 1.0457014e-19)
(0.048875671 0.023247018 -1.9033531e-19)
(0.057240117 0.020541836 2.9284412e-21)
(0.057185702 0.014109618 2.3519558e-19)
(0.050000273 0.0076479641 4.7363198e-20)
(0.039972401 0.003223044 -9.822636e-20)
(0.028828297 0.00086673518 -4.2860514e-21)
(0.022760052 5.4708137e-05 -1.2329619e-21)
(0.013029362 -5.6402699e-05 3.9361459e-21)
(0.034855549 0.0001596034 5.3609527e-22)
(0.025668589 1.7228798e-05 1.6719095e-22)
(0.032993959 -0.00089644319 8.4461675e-22)
(0.024687975 -0.0017883819 -4.9670302e-20)
(0.014532755 -0.0020129392 -3.504099e-20)
(0.0008151834 -1.3158473e-05 1.0955735e-19)
(-0.0087596047 0.0032378102 2.8917968e-20)
(-0.010290004 0.0049124196 2.5783169e-21)
(-0.0082379371 0.0047310065 -3.3889431e-21)
(-0.0065058571 0.0042685597 -4.0788463e-21)
(-0.0055836505 0.0040313985 5.3541252e-21)
(-0.0049622003 0.0038318229 -3.9026014e-20)
(-0.0044340521 0.003589646 -9.0741465e-20)
(-0.0038981916 0.0032562358 7.8837878e-21)
(-0.0033992022 0.0028919284 9.8484511e-20)
(-0.0029307261 0.0025083914 6.3287524e-21)
(-0.0025326416 0.0021555547 -6.1888949e-20)
(-0.0022316669 0.0018714957 -1.324417e-19)
(-0.0019733641 0.0016287544 -5.1867165e-20)
(-0.0017242194 0.0014018705 -3.6949122e-21)
(-0.0014587708 0.0011692667 -1.0494411e-19)
(-0.001179993 0.00093296996 8.0512585e-20)
(-0.00086193562 0.0006716286 1.272936e-19)
(-0.00049372801 0.00037644191 -6.4878706e-20)
(-6.0268584e-05 3.5243293e-05 -2.2998885e-20)
(0.00044875194 -0.000360303 -1.9427972e-20)
(0.001009503 -0.00079245507 1.3934017e-19)
(0.0015965262 -0.0012385578 7.5575325e-20)
(0.00218217 -0.0016686586 -6.5104058e-20)
(0.0027264873 -0.0020448599 -1.3498136e-20)
(0.0031905938 -0.0023328686 -4.8092468e-20)
(0.0035320613 -0.0025000492 8.6954939e-21)
(0.0037025575 -0.0025163391 -4.6042111e-20)
(0.0036642644 -0.0023681904 -2.6844159e-20)
(0.0034057482 -0.0020685877 2.2184919e-20)
(0.0029494946 -0.0016601 -3.3238818e-21)
(0.0023573938 -0.0012123239 1.2831276e-20)
(0.0017029412 -0.00078978454 1.9737177e-20)
(0.001061795 -0.00043576743 -1.1203041e-20)
(0.00049118117 -0.00017111921 3.9065697e-20)
(5.5279359e-06 8.8674298e-06 -1.9968349e-20)
(-0.00040048572 0.00011735258 -1.675118e-20)
(-0.00073155581 0.00016666149 -4.7629583e-21)
(-0.00099814879 0.00016967843 -6.9660073e-21)
(-0.0012164677 0.00013790414 4.0531476e-21)
(-0.0013827709 7.8994395e-05 -4.3343735e-21)
(-0.0015384499 1.3112037e-05 2.5744962e-22)
(-0.0016710667 2.0288046e-06 -2.5876443e-24)
(-0.0017210736 2.3273626e-07 7.2745009e-25)
(-0.0016961426 -1.6777914e-06 1.3729956e-24)
(-0.0015804879 -3.7780683e-06 1.348675e-25)
(-0.0013729506 -5.7414212e-06 -3.1191836e-25)
(-0.0010874149 -7.3355429e-06 -1.7557596e-24)
(-0.00074166824 -8.6864722e-06 3.2978913e-24)
(-0.00033960688 -9.8786881e-06 -2.3654063e-24)
(0.00010893174 -1.0826304e-05 -9.7574144e-25)
(0.00059331712 -1.1449825e-05 1.3157508e-24)
(0.0010963278 -1.1922683e-05 6.1673029e-25)
(0.0016205675 -1.2222087e-05 -8.5552312e-25)
(0.0021495785 -1.2051086e-05 3.3095447e-26)
(0.0026606813 -1.127939e-05 -7.8126707e-25)
(0.0031254862 -9.6634927e-06 7.8837514e-25)
(0.003501251 -6.9071841e-06 -1.8692851e-25)
(0.0037341076 -2.7132651e-06 -5.0278949e-26)
(0.0037551826 2.9763204e-06 -9.7296578e-26)
(0.0035046855 9.9649229e-06 6.1378644e-25)
(0.0029272942 1.756212e-05 -1.0640622e-24)
(0.0020226381 2.4824136e-05 1.2826736e-24)
(0.00080983963 2.9990572e-05 -5.257206e-25)
(-0.00055837037 3.0537513e-05 -3.9414678e-25)
(-0.0018614084 2.8372014e-05 2.1712085e-25)
(-0.0030625186 2.6567325e-05 -1.4338187e-26)
(-0.0042047309 2.4513472e-05 1.6788235e-26)
(-0.0052296285 2.2151408e-05 1.822709e-25)
(-0.0061556484 1.9857242e-05 -2.3138142e-25)
(-0.0069695393 1.7504804e-05 -4.8308676e-25)
(-0.007676389 1.5394286e-05 3.1793386e-25)
(-0.0082910676 1.3754747e-05 -4.0147802e-25)
(-0.008838081 1.2582804e-05 5.8277344e-25)
(-0.0093328197 1.1483198e-05 -1.400107e-24)
(-0.0097661151 9.8192597e-06 3.1293599e-24)
(-0.010099082 6.8720981e-06 -1.7953568e-24)
(-0.010261275 1.9214376e-06 2.7831756e-25)
(-0.010152706 -5.573866e-06 -3.4519003e-24)
(-0.0096571072 -1.6351861e-05 2.6462675e-24)
(-0.0086117769 -3.0832824e-05 -2.1852531e-24)
(-0.006873442 -4.8120877e-05 1.5293113e-25)
(-0.0043501715 -6.841396e-05 9.3578698e-25)
(-0.00085195636 -9.3116084e-05 1.743299e-24)
(0.0037709296 -0.00012162843 -3.056833e-24)
(0.0096606252 -0.0001529919 -3.5791425e-24)
(0.016918647 -0.00018610081 1.6657187e-24)
(0.025565305 -0.0002170515 2.8302634e-24)
(0.035372465 -0.00023773162 -1.9518667e-24)
(0.045681729 -0.00023501098 -5.0755141e-25)
(0.055187126 -0.00019225167 1.1542973e-24)
(0.061882493 -9.8389674e-05 -7.1973984e-26)
(0.063582442 3.6772243e-05 2.6741786e-25)
(0.059096478 0.00017847231 -5.1390844e-28)
(0.048960956 0.0002776554 -2.0310114e-25)
(0.035916126 0.00030213269 -2.8611065e-25)
(0.023309758 0.00026007624 -1.7786257e-25)
(0.013450764 0.00018786577 -2.6030673e-25)
(0.0068150656 0.00012383917 7.3180227e-25)
(0.0024478004 8.7034966e-05 -1.1844242e-24)
(-0.00087651958 6.7388228e-05 7.0550411e-25)
(-0.0033220444 4.1318815e-05 1.2332705e-24)
(-0.0042278447 2.4685124e-06 -1.4574819e-24)
(-0.0033260996 -3.5119829e-05 -4.1239339e-25)
(-0.0011147726 -5.6853043e-05 1.2066158e-24)
(0.0015431026 -6.1178939e-05 4.9229961e-25)
(0.0040830441 -5.6491187e-05 -4.1736991e-25)
(0.0063414345 -5.0243625e-05 -1.6037292e-25)
(0.0083611032 -4.5737494e-05 1.0193319e-25)
(0.010243056 -4.3221565e-05 -4.6140794e-26)
(0.012046996 -4.1451499e-05 1.3663412e-25)
(0.013769545 -3.9117084e-05 -2.4687744e-25)
(0.015364114 -3.5861224e-05 -5.4549872e-25)
(0.0168002 -3.2394012e-05 2.765856e-25)
(0.0180875 -2.9207844e-05 3.577986e-25)
(0.019233237 -2.5963629e-05 -2.4625329e-25)
(0.020214379 -2.1676322e-05 -6.4946501e-25)
(0.020953132 -1.5124466e-05 1.3293805e-24)
(0.02132847 -5.6726431e-06 1.3221906e-24)
(0.021213129 6.4644431e-06 6.7769808e-25)
(0.020511609 2.0267607e-05 -6.9374133e-24)
(0.019189905 3.4285998e-05 2.4411897e-24)
(0.017282476 4.7001866e-05 -6.8691987e-24)
(0.014884542 5.7251429e-05 7.9268106e-24)
(0.012125709 6.4572014e-05 1.1343721e-23)
(0.0091336197 6.9037861e-05 -1.6743587e-23)
(0.0060262205 7.1169475e-05 -2.1483597e-23)
(0.0028844684 7.1596171e-05 6.2953067e-23)
(-0.00023070833 7.0923929e-05 -6.5067126e-23)
(-0.00329084 6.981045e-05 2.0553463e-23)
(-0.0062924852 6.8589273e-05 2.033105e-23)
(-0.0092339937 6.7396575e-05 -1.6854625e-23)
(-0.012121576 6.642874e-05 9.1765816e-24)
(-0.014970313 6.5875996e-05 3.8931216e-23)
(-0.017802368 6.590147e-05 -1.8339698e-23)
(-0.020646398 6.6656064e-05 -5.0531351e-23)
(-0.023536768 6.8251796e-05 -2.1491705e-23)
(-0.026511231 7.0756951e-05 2.6145174e-23)
(-0.029609007 7.4201151e-05 8.0248862e-23)
(-0.032869076 7.8535386e-05 -2.130008e-23)
(-0.036324561 8.3634241e-05 2.7003723e-23)
(-0.040001339 8.9191974e-05 -1.0167907e-22)
(-0.043901317 9.4805857e-05 -1.972477e-23)
(-0.048012509 9.9170207e-05 2.7297647e-23)
(-0.05220917 0.00010104417 2.9509466e-23)
(-0.056379753 9.2827492e-05 2.1996769e-23)
(-0.059671319 6.8321339e-05 -1.7734609e-23)
(-0.061599414 -4.1337131e-05 1.5755312e-23)
(-0.055062224 -0.00056027961 -5.4575239e-21)
(-0.044893484 -0.002622042 -3.6087039e-20)
(-0.040175536 -0.0045115892 -2.8003039e-19)
(-0.03636722 -0.0060503777 1.4634348e-19)
(-0.033852537 -0.0074417356 -5.9176714e-20)
(-0.032169554 -0.0087635736 -3.9114274e-19)
(-0.031104954 -0.010073455 -5.7795385e-20)
(-0.030512763 -0.01143291 4.3932983e-19)
(-0.030371776 -0.01288952 4.9656955e-20)
(-0.030536666 -0.014444096 -2.125799e-19)
(-0.030926064 -0.016091967 -8.2604602e-20)
(-0.031581954 -0.017880998 -1.0407854e-19)
(-0.032756988 -0.019944647 -3.1060093e-19)
(-0.03431822 -0.022172397 -2.2005678e-19)
(-0.035928935 -0.024358141 1.5388919e-20)
(-0.037458745 -0.026403826 1.5024159e-19)
(-0.038814046 -0.028218423 2.1307298e-20)
(-0.039931259 -0.029731157 2.3932193e-20)
(-0.040772008 -0.030888556 1.2605592e-20)
(-0.041310532 -0.031653636 -5.7225306e-20)
(-0.041384192 -0.031899485 1.3659406e-19)
(-0.040763734 -0.031540914 -5.0166448e-20)
(-0.039386069 -0.03062185 -8.8188978e-20)
(-0.03742906 -0.029331344 1.1950512e-18)
(-0.035117403 -0.027764406 1.3044051e-19)
(-0.032455813 -0.025927923 5.4117457e-20)
(-0.029512126 -0.023861657 1.7304948e-18)
(-0.026333248 -0.021583607 -7.8659403e-19)
(-0.022933571 -0.019082975 1.0801333e-19)
(-0.019324345 -0.016351273 -3.8682609e-19)
(-0.015526236 -0.013358703 1.1247588e-18)
(-0.011449476 -0.0099417306 2.27114e-18)
(-0.0067785874 -0.0059250325 -1.2992185e-18)
(0.00027899276 6.3871574e-05 -1.8777183e-18)
(0.0080995556 0.00638867 -3.3521218e-19)
(0.017485386 0.013323079 -2.8596353e-18)
(0.029103926 0.020829047 1.5853613e-18)
(0.043867435 0.028648336 2.3111747e-18)
(0.061667847 0.03533765 5.2885359e-19)
(0.081096402 0.038490752 -1.969823e-19)
(0.094937837 0.03405576 -2.3844642e-21)
(0.095325443 0.023580665 -5.5151773e-20)
(0.084124161 0.012970687 -3.0241777e-19)
(0.067963203 0.0055970101 7.480208e-20)
(0.049732947 0.0015900762 -2.2750004e-20)
(0.039387514 0.0001795789 -1.4818743e-22)
(0.023428388 -8.4747048e-05 -7.3765581e-21)
(0.049966853 0.0002208153 -9.0503246e-21)
(0.037706117 3.3412914e-05 -4.2188314e-22)
(0.047190661 -0.0012724463 -8.9774984e-21)
(0.035863552 -0.0025086905 3.951259e-20)
(0.021597293 -0.002877131 -1.059551e-21)
(0.0021995388 -0.00014845856 -3.7728133e-20)
(-0.011871095 0.0044578497 1.6081626e-20)
(-0.014488946 0.0069149915 -6.5608365e-21)
(-0.011738121 0.0067175854 -3.2273307e-21)
(-0.0093062953 0.0060880067 -7.0496779e-21)
(-0.0079891536 0.0057564679 -4.9075566e-20)
(-0.0071002126 0.0054733764 7.2887029e-20)
(-0.0063462997 0.0051285683 -3.417719e-20)
(-0.0055837832 0.0046552092 1.5564224e-20)
(-0.0048729321 0.0041371083 -1.4432678e-20)
(-0.0042055221 0.0035916563 -1.4609684e-19)
(-0.0036367283 0.0030888325 -1.410452e-20)
(-0.003204934 0.0026824172 2.7244479e-20)
(-0.0028344168 0.002334668 -3.1328218e-21)
(-0.0024773883 0.0020094457 -1.3717054e-19)
(-0.0020978055 0.0016765261 6.9780171e-20)
(-0.0016997289 0.0013385746 2.0103901e-20)
(-0.0012469985 0.00096571061 -1.2958257e-19)
(-0.00072428007 0.0005455551 6.05339e-20)
(-0.0001103611 6.1000501e-05 -9.6209383e-20)
(0.00061046597 -0.00050030239 -1.2302783e-19)
(0.0014050293 -0.001113353 -2.965242e-20)
(0.0022371344 -0.0017459697 4.1825648e-20)
(0.003067998 -0.002355917 3.5230976e-20)
(0.0038417425 -0.0028899164 7.9744005e-20)
(0.0045038695 -0.0032997139 9.2647487e-21)
(0.0049948754 -0.0035392677 2.8054528e-20)
(0.0052465756 -0.003565984 5.4251504e-20)
(0.0052047895 -0.0033602666 9.5044876e-20)
(0.0048517657 -0.0029397188 2.7817049e-20)
(0.0042167199 -0.0023635224 1.1242448e-20)
(0.0033847253 -0.0017294697 -2.0319777e-20)
(0.002458913 -0.0011292261 -2.7018033e-20)
(0.0015469694 -0.00062489417 -5.2439998e-21)
(0.00073181935 -0.00024685766 -2.3822629e-20)
(3.6363673e-05 1.0802825e-05 1.651597e-20)
(-0.00054601512 0.00016651036 2.0142569e-20)
(-0.0010210592 0.00023757479 2.0248971e-21)
(-0.0014036795 0.00024251205 7.2802996e-21)
(-0.0017170569 0.00019768303 -7.3461701e-21)
(-0.0019567742 0.00011428645 6.5228989e-21)
(-0.0021798768 2.0835076e-05 -3.932972e-23)
(-0.0023693501 4.3311042e-06 -3.254117e-25)
(-0.0024426984 5.651636e-07 3.3337536e-25)
(-0.0024094244 -3.4382522e-06 -3.463051e-25)
(-0.0022477945 -7.8361524e-06 -3.6267587e-25)
(-0.0019564147 -1.1938704e-05 6.4774526e-25)
(-0.0015552645 -1.5267542e-05 2.2661031e-24)
(-0.0010695157 -1.8082181e-05 -2.979071e-24)
(-0.00050484063 -2.0565008e-05 2.2170497e-24)
(0.00012495494 -2.2547461e-05 -2.8303634e-24)
(0.00080549254 -2.3852338e-05 6.7036129e-25)
(0.0015118507 -2.482596e-05 3.6970139e-25)
(0.0022474059 -2.5451366e-05 1.1176015e-24)
(0.0029898239 -2.511803e-05 -1.4124405e-24)
(0.003707908 -2.3549347e-05 1.1664519e-24)
(0.0043623955 -2.0248096e-05 -1.7323111e-25)
(0.0048943669 -1.4599219e-05 -1.0245484e-25)
(0.0052291264 -5.9785071e-06 -1.4047269e-25)
(0.0052708843 5.7588702e-06 3.3747705e-25)
(0.0049350705 2.0238435e-05 -4.252184e-25)