/*--------------------------------*- C++ -*----------------------------------*\
| =========                 |                                                 |
| \\      /  F ield         | OpenFOAM: The Open Source CFD Toolbox           |
|  \\    /   O peration     | Version:  2.4.0                                 |
|   \\  /    A nd           | Web:      www.OpenFOAM.org                      |
|    \\/     M anipulation  |                                                 |
\*---------------------------------------------------------------------------*/
FoamFile
{
    version     2.0;
    format      ascii;
    class       volScalarField;
    location    "15000";
    object      omega;
}
// * * * * * * * * * * * * * * * * * * * * * * * * * * * * * * * * * * * * * //

dimensions      [0 0 -1 0 0 0 0];

internalField   nonuniform List<scalar> 
9781
(
288636.63
288686.54
129783.85
129783.84
129783.85
129783.85
129783.84
129783.85
129783.85
129783.84
129783.85
129783.85
129783.85
129783.85
129783.85
129783.85
129783.85
129783.84
129783.85
129783.85
129783.85
129783.85
129783.85
129783.85
129783.85
129783.85
129783.85
129783.85
129783.85
129783.85
129783.85
129783.85
129783.85
129783.85
129783.85
129783.85
129783.84
129783.85
129783.85
129783.84
129783.85
129783.85
129783.85
129783.85
129783.85
129783.84
129783.85
129783.85
129783.84
129657.28
129512.01
129895.29
130811.3
132247.51
134192.34
136634.64
139564.65
142973.98
146855.32
151204.67
156018.82
161297.58
167043.87
173262.26
179902.7
186708.68
193567.05
200429.57
207253.32
214004.05
220644.49
227134.65
233439.26
239524.1
245352.66
250877.67
256108.08
261440.19
267124.37
273191.43
279670.54
286594.56
293991.4
301901.42
310366.52
319421.34
329122.77
339524.25
350675.48
362412.53
373310.22
382630.09
390168.82
395719.59
399058.71
399989.89
398342.36
393921.49
386411.41
375828.68
362441.02
346789.97
329814.86
314010.09
302672.88
295478.99
291431.81
289515.62
288834.57
288701.21
288686.52
288636.62
48842.513
48849.377
21961.553
21961.553
21961.553
21961.552
21961.552
21961.552
21961.552
21961.551
21961.552
21961.552
21961.551
21961.551
21961.551
21961.551
21961.551
21961.551
21961.551
21961.551
21961.552
21961.552
21961.551
21961.552
21961.552
21961.552
21961.552
21961.553
21961.553
21961.553
21961.554
21961.554
21961.554
21961.555
21961.556
21961.556
21961.557
21961.558
21961.558
21961.559
21961.561
21961.562
21961.563
21961.565
21961.567
21961.57
21961.574
21961.581
21962.087
21942.4
21919.056
21983.959
22138.989
22382.098
22711.307
23124.741
23620.733
24197.882
24854.898
25591.13
26406.052
27299.587
28272.247
29324.769
30448.54
31600.082
32760.333
33921.292
35075.777
36217.749
37341.015
38438.825
39505.248
40534.388
41519.971
42454.402
43339.366
44241.766
45203.79
46230.697
47327.566
48499.553
49751.431
51090.171
52522.865
54055.442
55697.5
57458.102
59345.468
61331.065
63124.88
62667.125
63441.601
64281.568
64806.773
64950.943
64679.028
63957.783
62735.349
61014.637
58839.111
56297.018
53541.395
50979.115
49143.322
47983.474
47339.4
48438.331
48873.795
48852.471
48850.46
48843.053
16150.498
16152.193
7261.8935
7261.8923
7261.8912
7261.89
7261.889
7261.8882
7261.8874
7261.8864
7261.8859
7261.8853
7261.8847
7261.8842
7261.8839
7261.8834
7261.8832
7261.8829
7261.8829
7261.8827
7261.8828
7261.8827
7261.8829
7261.8831
7261.8832
7261.8836
7261.8838
7261.8843
7261.8847
7261.8853
7261.8859
7261.8866
7261.8874
7261.8884
7261.8893
7261.8905
7261.8916
7261.8933
7261.8947
7261.8967
7261.8987
7261.9012
7261.9037
7261.9071
7261.9105
7261.9154
7261.921
7261.9285
7262.229
7256.1687
7248.7618
7270.2335
7321.5034
7401.9148
7510.8042
7647.5532
7811.6128
8002.5193
8219.8417
8463.3647
8732.9092
9028.4566
9350.1673
9698.2844
10069.912
10450.668
10834.277
11218.098
11599.788
11977.332
12348.672
12711.587
13064.114
13404.288
13730.067
14038.961
14331.542
14629.978
14948.179
15287.815
15650.603
16038.24
16452.303
16895.081
17368.938
17875.847
18418.914
19001.218
19625.424
20281.804
20878.601
20958.854
21272.092
21560.57
21737.899
21786.266
21694.82
21452.375
21041.906
20464.435
19734.605
18882.16
17958.919
17101.175
16486.574
16097.438
15880.261
16082.106
16162.393
16154.917
16154.108
16151.095
7444.8971
7445.2485
3347.4302
3347.4275
3347.4249
3347.4225
3347.4202
3347.4182
3347.4162
3347.4144
3347.4127
3347.4112
3347.4098
3347.4086
3347.4075
3347.4065
3347.4057
3347.4049
3347.4043
3347.4039
3347.4035
3347.4032
3347.4031
3347.4031
3347.4032
3347.4034
3347.4037
3347.4042
3347.4047
3347.4054
3347.4062
3347.4072
3347.4083
3347.4096
3347.4111
3347.4128
3347.4146
3347.4169
3347.4193
3347.4221
3347.4253
3347.429
3347.433
3347.438
3347.4433
3347.4503
3347.4581
3347.4676
3347.6678
3345.0748
3341.7899
3351.6876
3375.3164
3412.3856
3462.5843
3525.6289
3601.2671
3689.2798
3789.471
3901.7413
4026.0089
4162.2637
4310.5762
4471.0572
4642.3458
4817.8219
4994.604
5171.4754
5347.3684
5521.3425
5692.4525
5859.6825
6022.1294
6178.8755
6328.9805
6471.3086
6606.1571
6743.7488
6890.4695
7047.0766
7214.3431
7393.0605
7583.9611
7788.1055
8006.5807
8240.2885
8490.6579
8759.1035
9046.8434
9349.2871
9625.2095
9719.291
9877.7908
10013.404
10096.055
10118.527
10076.063
9963.4823
9772.9814
9505.0682
9166.6805
8771.672
8344.4737
7947.8637
7663.2905
7482.3018
7380.6094
7432.591
7453.3927
7448.8683
7448.0912
7445.5387
4130.6589
4130.4662
1857.0143
1857.0096
1857.0051
1857.0008
1856.9969
1856.9932
1856.9897
1856.9864
1856.9835
1856.9807
1856.9782
1856.9759
1856.9738
1856.972
1856.9703
1856.9689
1856.9676
1856.9666
1856.9657
1856.9651
1856.9646
1856.9643
1856.9642
1856.9643
1856.9645
1856.965
1856.9656
1856.9664
1856.9675
1856.9687
1856.9702
1856.972
1856.974
1856.9763
1856.9789
1856.9819
1856.9853
1856.9892
1856.9936
1856.9987
1857.0044
1857.0111
1857.0186
1857.0278
1857.0381
1857.05
1857.1993
1855.8773
1854.1227
1859.6107
1872.7122
1893.2736
1921.121
1956.0969
1998.0595
2046.8887
2102.4744
2164.7601
2233.7023
2309.2934
2391.5722
2480.5993
2575.6066
2672.9227
2770.9582
2869.0405
2966.5817
3063.055
3157.9397
3250.6745
3340.7579
3427.683
3510.9239
3589.8613
3664.6759
3741.0346
3822.4673
3909.3807
4002.2084
4101.3849
4207.3176
4320.605
4441.846
4571.5337
4710.4644
4859.4217
5019.0568
5186.7691
5340.0622
5411.2117
5503.8461
5580.0043
5626.2603
5638.9095
5615.4179
5552.9264
5447.1842
5298.4805
5110.8283
4891.9564
4655.7947
4436.6382
4278.8099
4177.492
4119.8542
4133.8676
4139.2759
4135.2658
4134.2775
4131.3561
2570.5844
2570.1127
1155.1958
1155.1886
1155.1817
1155.1753
1155.1692
1155.1636
1155.1583
1155.1533
1155.1487
1155.1445
1155.1406
1155.137
1155.1338
1155.1309
1155.1283
1155.126
1155.124
1155.1223
1155.1208
1155.1197
1155.1188
1155.1182
1155.1179
1155.1178
1155.118
1155.1185
1155.1193
1155.1203
1155.1216
1155.1232
1155.1252
1155.1274
1155.1301
1155.1331
1155.1366
1155.1405
1155.145
1155.1501
1155.156
1155.1626
1155.1701
1155.1787
1155.1887
1155.2003
1155.2135
1155.2281
1155.349
1154.6048
1153.5525
1156.9622
1165.1047
1177.89
1195.2095
1216.964
1243.0658
1273.4396
1308.0165
1346.7608
1389.6458
1436.6659
1487.8451
1543.2206
1602.3045
1662.8157
1723.7724
1784.7572
1845.406
1905.3911
1964.3899
2022.0537
2078.0703
2132.126
2183.8943
2232.9971
2279.5613
2327.1006
2377.7945
2431.8973
2489.6818
2551.4131
2617.3482
2687.862
2763.3215
2844.0378
2930.5087
3023.2162
3122.5476
3226.8533
3322.29
3374.3355
3433.9457
3481.8042
3510.8899
3519.0147
3504.6638
3466.0832
3400.7146
3308.7388
3192.7855
3057.6958
2912.4286
2777.6428
2679.9193
2616.169
2579.0968
2580.5861
2580.5685
2576.276
2574.9268
2571.3871
1728.1051
1727.4822
775.87387
775.86382
775.85435
775.84541
775.837
775.82912
775.82175
775.81488
775.80851
775.80262
775.79721
775.79225
775.78775
775.78369
775.78006
775.77686
775.77406
775.77166
775.76966
775.76804
775.7668
775.76594
775.76543
775.76529
775.76551
775.7661
775.76705
775.76836
775.77007
775.77215
775.77468
775.77761
775.78105
775.78495
775.78946
775.7945
775.80033
775.80677
775.81427
775.82252
775.83217
775.84287
775.85542
775.86967
775.88614
775.90387
776.008
775.56585
774.88265
777.16752
782.62813
791.20873
802.83593
817.44223
834.96916
855.36504
878.58439
904.60209
933.40048
964.97515
999.34275
1036.5271
1076.1931
1116.8119
1157.7289
1198.6653
1239.3762
1279.6444
1319.2527
1357.9657
1395.5771
1431.8771
1466.6462
1499.6347
1530.9414
1562.9151
1597.0061
1633.3876
1672.2412
1713.7464
1758.0765
1805.4847
1856.2169
1910.4823
1968.6167
2030.9416
2097.705
2167.7718
2231.9141
2270.6415
2311.7116
2344.2208
2364.0806
2369.8674
2360.6201
2335.1853
2291.9245
2230.9617
2154.1754
2064.8395
1969.21
1880.5143
1815.5801
1772.2048
1746.0872
1742.6026
1740.0604
1735.1738
1733.3271
1729.0983
1227.889
1227.1961
550.2777
550.26467
550.25239
550.24082
550.22995
550.21976
550.21024
550.20138
550.19318
550.1856
550.17865
550.1723
550.16654
550.16136
550.15675
550.15268
550.14915
550.14614
550.14366
550.14167
550.14017
550.13916
550.13862
550.13854
550.13894
550.1398
550.14114
550.14293
550.14523
550.14799
550.15132
550.15514
550.15962
550.16462
550.17042
550.17681
550.18422
550.19229
550.20172
550.21194
550.22397
550.23708
550.25258
550.26982
550.28994
550.31133
550.4056
550.13755
549.66693
551.28131
555.14543
561.2238
569.4639
579.81709
592.24263
606.70241
623.16492
641.61151
662.03017
684.41676
708.78422
735.14788
763.26378
792.05146
821.05073
850.06533
878.92158
907.46593
935.54498
962.99245
989.66411
1015.4121
1040.081
1063.4959
1085.7409
1108.471
1132.6986
1158.5508
1186.1572
1215.6463
1247.1415
1280.8234
1316.8656
1355.4197
1396.7209
1440.9969
1488.4151
1538.1482
1583.685
1613.2525
1643.035
1666.4311
1680.8719
1685.3701
1679.2812
1661.8213
1631.901
1589.6082
1536.3674
1474.5306
1408.7353
1347.8214
1302.6891
1271.5995
1251.9428
1246.2206
1242.1709
1236.5904
1234.1185
1229.2105
909.79623
909.09079
406.39523
406.3792
406.36411
406.34991
406.33658
406.32412
406.3125
406.30171
406.29173
406.28255
406.27415
406.26651
406.25961
406.25343
406.24797
406.2432
406.23909
406.23565
406.23285
406.23068
406.22912
406.22816
406.22781
406.22802
406.22882
406.23019
406.23217
406.23469
406.23784
406.24155
406.24597
406.25096
406.25676
406.26317
406.27058
406.27863
406.28795
406.29799
406.3097
406.32225
406.33703
406.35293
406.37179
406.39245
406.4167
406.44225
406.53118
406.37115
406.03119
407.21659
410.06111
414.54208
420.62055
428.25973
437.43026
448.10271
460.25453
473.87096
488.94378
505.46924
523.45796
542.91878
563.66733
584.90947
606.30883
627.72108
649.01878
670.0885
690.81807
711.08605
730.78628
749.81097
768.04652
785.36426
801.84267
818.69109
836.63758
855.78619
876.23223
898.07128
921.39576
946.33853
973.02867
1001.5806
1032.1654
1064.9526
1100.0561
1136.848
1170.5328
1193.6922
1216.1772
1233.7962
1244.8433
1248.601
1244.615
1232.3503
1211.0577
1180.806
1142.7167
1098.5741
1051.9873
1009.086
976.9003
953.917
938.45781
931.70835
926.60083
920.34346
917.14191
911.61418
696.85934
696.17744
309.6168
309.59788
309.58011
309.56343
309.54781
309.53323
309.51968
309.50713
309.49558
309.48498
309.47534
309.46661
309.45878
309.45184
309.44575
309.4405
309.43607
309.43243
309.42957
309.42747
309.42612
309.42549
309.42558
309.42636
309.42786
309.43003
309.43293
309.43648
309.4408
309.44577
309.45159
309.45808
309.46554
309.47369
309.48305
309.49312
309.5047
309.51708
309.53145
309.54672
309.56466
309.58377
309.60642
309.63096
309.65982
309.69011
309.77685
309.68794
309.43211
310.32771
312.48504
315.89027
320.5137
326.32619
333.30623
341.43025
350.68179
361.04854
372.52487
385.10745
398.80535
413.62245
429.41552
445.58295
461.87177
478.17228
494.3881
510.43331
526.22327
541.66669
556.68341
571.19237
585.10822
598.33228
610.9439
623.85082
637.58288
652.23407
667.87656
684.58375
702.42626
721.50643
741.92337
763.76508
787.16147
812.24191
839.08482
867.19735
892.92457
911.49585
929.03617
942.80423
951.61779
954.93819
952.42214
943.71328
928.28095
906.18343
878.32364
846.13188
812.54066
781.97917
758.82688
741.64945
729.2192
722.12034
716.24196
709.40626
705.40804
699.35264
548.58963
547.94284
241.74286
241.72136
241.7012
241.68232
241.66468
241.64828
241.63309
241.61908
241.60624
241.59453
241.58393
241.57441
241.56596
241.55854
241.55214
241.54671
241.54225
241.53872
241.53611
241.53439
241.53355
241.53356
241.53442
241.53608
241.53859
241.54188
241.54603
241.55093
241.55674
241.5633
241.57086
241.57917
241.58864
241.59888
241.61052
241.62297
241.63718
241.65226
241.66967
241.68806
241.70955
241.73229
241.75917
241.78804
241.82201
241.85757
241.9445
241.90483
241.70499
242.39611
244.07026
246.7199
250.32186
254.85229
260.29534
266.63138
273.8484
281.93566
290.88942
300.70672
311.3954
322.95564
335.27379
347.88324
360.58933
373.30676
385.96082
398.48524
410.81472
422.87879
434.61597
445.96406
456.85753
467.21594
477.12707
487.28504
498.07062
509.57839
521.86378
534.98466
548.99639
563.98
580.01281
597.16517
615.53849
635.23331
656.30298
678.34882
698.50651
713.71499
727.77499
738.86781
746.14644
749.19618
747.73466
741.53745
730.21628
713.82394
693.096
669.24563
644.75843
623.0055
606.5045
593.80534
583.81732
576.84788
570.46136
563.20691
558.39694
551.92893
442.11884
441.4902
192.53227
192.50716
192.48352
192.46138
192.44072
192.42148
192.40366
192.38722
192.37214
192.35839
192.34594
192.33477
192.32483
192.31611
192.30858
192.30221
192.29696
192.29281
192.28973
192.2877
192.28669
192.2867
192.28766
192.28961
192.29247
192.29631
192.30104
192.30675
192.31332
192.32093
192.32939
192.339
192.34946
192.36124
192.37388
192.38814
192.40328
192.42046
192.43858
192.45937
192.48121
192.50661
192.53336
192.56484
192.59846
192.63795
192.67926
192.7682
192.76416
192.60248
193.14409
194.46658
196.5671
199.42724
203.02697
207.35459
212.39325
218.13423
224.56785
231.6919
239.50378
248.00988
257.20812
267.00646
277.03624
287.14502
297.26533
307.3383
317.31183
327.13447
336.75117
346.1142
355.17505
363.88212
372.16493
380.12804
388.30787
396.96334
406.20082
416.06206
426.59316
437.83883
449.864
462.73083
476.49708
491.24269
507.04724
523.94596
541.60689
557.73117
570.4179
581.9469
591.11243
597.28988
600.15317
599.44938
595.05252
586.66589
574.33997
558.67845
540.76744
522.80542
507.52532
496.13604
487.11167
479.29722
472.8519
466.24167
458.77344
453.19832
446.44682
363.76107
363.10246
155.81136
155.78444
155.75919
155.73562
155.71369
155.69335
155.6746
155.65739
155.64169
155.62748
155.61473
155.6034
155.59345
155.58486
155.57759
155.57162
155.5669
155.56342
155.56113
155.56002
155.56004
155.5612
155.56343
155.56676
155.57111
155.57656
155.583
155.59055
155.59906
155.60872
155.61934
155.63125
155.64411
155.65845
155.67374
155.69085
155.70894
155.72932
155.75073
155.77514
155.80071
155.83027
155.8613
155.89766
155.93632
155.98164
156.02905
156.12137
156.14412
156.00882
156.43781
157.49694
159.18699
161.49317
164.39817
167.8935
171.96428
176.60437
181.80482
187.56465
193.88149
200.7601
208.19754
216.11743
224.22455
232.3979
240.58322
248.73352
256.80711
264.76317
272.5582
280.1545
287.5139
294.59501
301.33087
307.85323
314.56857
321.64382
329.19621
337.25862
345.86817
355.06149
364.89168
375.40939
386.66272
398.71596
411.63244
425.43333
439.83414
452.95142
463.70345
473.33545
481.06292
486.41254
489.12279
488.9497
485.83878
479.5534
470.14258
458.10663
444.46431
431.23963
420.79985
413.46251
407.59242
401.84984
396.27185
389.74991
382.30278
376.07423
369.17466
304.91733
304.15302
127.80765
127.77781
127.74977
127.72355
127.69916
127.67655
127.65568
127.63652
127.61906
127.60324
127.58904
127.57643
127.56536
127.55581
127.54773
127.5411
127.53588
127.53202
127.52951
127.52831
127.52839
127.52971
127.53227
127.536
127.54094
127.547
127.55425
127.56259
127.57216
127.58276
127.59465
127.60758
127.62193
127.63732
127.65435
127.67242
127.6925
127.71365
127.73733
127.76214
127.79027
127.81967
127.8535
127.88892
127.93026
127.97409
128.02536
128.07905
128.17564
128.21914
128.10224
128.44422
129.30133
130.67722
132.55989
134.9341
137.79383
141.12565
144.92544
149.18477
153.9037
159.0799
164.71663
170.81073
177.29764
183.93831
190.63574
197.3457
204.03025
210.65565
217.18933
223.59656
229.84719
235.91108
241.75409
247.31009
252.74178
258.34578
264.22424
270.49607
277.19242
284.34298
291.97797
300.14145
308.87518
318.21982
328.2275
338.94847
350.3929
362.30912
373.1265
382.35945
390.52749
397.1424
401.8367
404.39381
404.56991
402.35611
397.55911
390.2266
380.78001
370.20923
360.43929
353.6397
349.57298
346.48218
342.78122
338.36259
332.25402
325.07621
318.36696
311.4536
259.95476
258.99037
105.98276
105.95237
105.92391
105.8974
105.87282
105.85013
105.82929
105.81028
105.79306
105.77759
105.76385
105.75178
105.74137
105.73255
105.72531
105.71962
105.71542
105.71268
105.71137
105.71144
105.7129
105.71568
105.71978
105.72513
105.73178
105.73963
105.74876
105.75905
105.77066
105.78339
105.7975
105.81274
105.82951
105.8474
105.86707
105.88787
105.91084
105.93498
105.96187
105.99
106.02174
106.05487
106.09282
106.13253
106.1787
106.22759
106.28465
106.34451
106.44578
106.50565
106.40159
106.67487
107.37385
108.50447
110.05691
112.0175
114.38223
117.13871
120.28443
123.81135
127.72042
132.00903
136.67941
141.72838
147.10047
152.60049
158.15011
163.71276
169.25768
174.75724
180.18524
185.51377
190.71877
195.77606
200.65647
205.2947
209.88328
214.62375
219.58096
224.85922
230.49659
236.51646
242.94379
249.81544
257.16626
265.03085
273.45173
282.46832
292.08142
302.06099
311.07803
319.08909
326.0938
331.81539
335.96173
338.34594
338.72092
337.1046
333.33648
327.46411
319.85208
311.48299
304.22655
300.14442
298.73033
298.10913
296.42724
293.39757
288.0161
281.35128
274.38222
267.58249
225.04939
223.78402
88.740374
88.708093
88.677898
88.649723
88.62356
88.599396
88.577191
88.556906
88.538512
88.521975
88.507254
88.494317
88.483126
88.473642
88.465821
88.459629
88.455052
88.452026
88.450517
88.450498
88.451919
88.454786
88.459021
88.464645
88.471577
88.479866
88.489406
88.500303
88.512413
88.525916
88.540596
88.556744
88.57407
88.593034
88.613176
88.63522
88.658464
88.684038
88.710852
88.740615
88.77171
88.806681
88.84316
88.884822
88.928406
88.978942
89.032434
89.09478
89.160377
89.266172
89.338924
89.243776
89.461832
90.034937
90.970845
92.26148
93.894347
95.867074
98.168071
100.79614
103.74349
107.01192
110.59793
114.50377
118.72582
123.21591
127.81362
132.45535
137.11055
141.75409
146.36328
150.91685
155.3922
159.77014
164.03109
168.14893
172.06103
175.98501
180.04115
184.27449
188.76983
193.57044
198.69734
204.17104
210.0225
216.28082
222.97568
230.14186
237.80934
245.9706
254.40825
261.9863
268.9897
275.0431
280.02024
283.68476
285.86774
286.31702
285.06851
281.98538
277.11848
270.79501
263.99813
258.5567
256.45711
257.1742
258.73279
259.01375
257.52749
253.14737
247.21737
240.2376
233.6685
197.52772
195.86882
74.878918
74.847477
74.818142
74.790852
74.765595
74.742354
74.72109
74.701766
74.68435
74.66881
74.655105
74.643203
74.633066
74.624656
74.617929
74.612849
74.609413
74.607551
74.607219
74.608406
74.611057
74.615181
74.620699
74.627635
74.635907
74.645569
74.656513
74.668851
74.682434
74.697457
74.713693
74.73145
74.750427
74.77111
74.793018
74.816915
74.842068
74.869665
74.89857
74.930578
74.964007
75.001518
75.04066
75.085272
75.131981
75.186047
75.243326
75.310035
75.380478
75.490082
75.572645
75.483612
75.656633
76.128181
76.907355
77.98753
79.357088
81.015009
82.950285
85.162814
87.644996
90.39919
93.421053
96.713212
100.27145
104.05356
107.92703
111.84004
115.76685
119.68682
123.58114
127.43252
131.22258
134.93589
138.55649
142.05963
145.38896
148.77904
152.28218
155.93449
159.80506
163.93234
168.34128
173.04827
178.07942
183.45911
189.21267
195.36844
201.94813
208.93662
216.12182
222.52828
228.67995
233.93425
238.27022
241.49449
243.44722
243.87219
242.82074
240.17264
235.98636
230.56748
224.89672
220.75118
220.04886
222.43848
225.84232
227.99363
228.12702
224.95741
219.94729
213.21021
206.97684
175.4782
173.35592
63.66648
63.634348
63.604325
63.57637
63.55043
63.526491
63.504532
63.484516
63.466409
63.450178
63.435793
63.423215
63.412413
63.40335
63.395989
63.39029
63.38621
63.383772
63.38288
63.383499
63.385629
63.38921
63.394258
63.400689
63.408536
63.417715
63.428284
63.440136
63.453388
63.467892
63.483847
63.501026
63.519749
63.539707
63.561404
63.584351
63.609334
63.635609
63.664393
63.694538
63.72788
63.762717
63.801774
63.842573
63.88904
63.937773
63.994153
64.054001
64.123716
64.197655
64.30974
64.399169
64.314255
64.450163
64.83894
65.490581
66.399676
67.555237
68.957378
70.595506
72.470457
74.574802
76.910989
79.474335
82.267756
85.286433
88.493089
91.777936
95.098625
98.433276
101.76487
105.07763
108.35751
111.58949
114.76112
117.85913
120.85853
123.71488
126.66801
129.71517
132.8927
136.25554
139.83338
143.65479
147.73455
152.09462
156.75524
161.73806
167.06578
172.75281
178.77705
184.92548
190.36359
195.77842
200.34612
204.11567
206.92892
208.6284
208.95806
207.98498
205.60101
201.87595
197.10486
192.25499
189.02185
189.27263
192.89101
197.78411
201.61856
203.39792
201.56686
197.61418
191.35344
185.54903
157.51326
154.89121
54.498581
54.46634
54.436117
54.40791
54.381681
54.357385
54.335005
54.314518
54.295892
54.279094
54.264094
54.250863
54.239365
54.229571
54.221447
54.214959
54.210067
54.20673
54.20499
54.204725
54.205923
54.208583
54.212646
54.218131
54.224959
54.233163
54.242662
54.253519
54.265628
54.279111
54.293819
54.309959
54.327303
54.346176
54.366274
54.388102
54.411177
54.43629
54.462701
54.491635
54.521954
54.555498
54.590588
54.629946
54.671135
54.718078
54.767436
54.824588
54.885437
54.95641
55.032071
55.144754
55.238078
55.155879
55.261012
55.581875
56.128911
56.897738
57.877801
59.070157
60.464526
62.062525
63.856795
65.849634
68.036504
70.420313
72.995745
75.729719
78.531046
81.365065
84.213032
87.060805
89.895103
92.704412
95.476383
98.200993
100.86684
103.44715
105.91661
108.50507
111.16916
113.95219
116.89318
120.01814
123.3505
126.90837
130.7101
134.77233
139.11341
143.75113
148.69345
153.91171
159.18696
163.81624
168.58115
172.54924
175.81071
178.23854
179.6724
179.86441
178.89684
176.67156
173.27223
168.98938
164.76086
162.16475
163.032
167.46166
173.4719
178.73682
182.08713
181.66407
178.85283
173.26254
167.96886
142.61664
139.49709
46.923596
46.893659
46.865605
46.839428
46.815096
46.792566
46.771824
46.752847
46.735606
46.72007
46.706212
46.694007
46.683421
46.67443
46.667
46.661102
46.656699
46.653753
46.652315
46.652255
46.653573
46.656271
46.660288
46.665653
46.672284
46.680221
46.689387
46.699844
46.711492
46.724453
46.738585
46.754091
46.770754
46.788893
46.808214
46.829215
46.851429
46.875632
46.90111
46.929062
46.958392
46.990898
47.024966
47.063254
47.103426
47.149311
47.197719
47.2539
47.313959
47.384185
47.459491
47.570482
47.664703
47.584267
47.663828
47.928783
48.389566
49.042677
49.877835
50.896868
52.089752
53.458744
54.996314
56.704839
58.579941
60.624389
62.832492
65.17481
67.575451
70.006036
72.450345
74.896585
77.333453
79.751476
82.140432
84.492148
86.796437
89.024453
91.174215
93.45252
95.790633
98.239974
100.82467
103.56883
106.49003
109.60669
112.93651
116.49289
120.29128
124.34516
128.65685
133.19164
137.72053
141.67103
145.85436
149.29416
152.09789
154.16761
155.33611
155.37561
154.37861
152.2583
149.11208
145.22748
141.49589
139.35246
140.5722
145.44454
152.19881
158.59106
163.34013
164.34416
162.70227
157.92364
153.21045
130.0406
126.46384
40.660354
40.632845
40.607049
40.582959
40.560545
40.539772
40.520624
40.503082
40.487118
40.472707
40.459824
40.448447
40.438545
40.430097
40.423075
40.417451
40.413194
40.41027
40.408725
40.408446
40.409428
40.411679
40.41514
40.419845
40.425715
40.432791
40.441002
40.45041
40.46092
40.472654
40.485474
40.499581
40.514767
40.53134
40.549024
40.568297
40.588716
40.611026
40.634555
40.660448
40.687674
40.717952
40.749765
40.785651
40.823427
40.866742
40.91263
40.966095
41.023541
41.090967
41.163751
41.270601
41.362812
41.283547
41.341899
41.560807
41.950265
42.507522
43.222461
44.097524
45.122905
46.301316
47.624949
49.096537
50.711696
52.473022
54.374575
56.390101
58.456388
60.550143
62.657225
64.767739
66.871961
68.962053
71.02947
73.06741
75.066355
76.996356
78.879068
80.889276
82.947396
85.109806
87.389394
89.807241
92.379041
95.118246
98.04369
101.16652
104.49972
108.05301
111.82389
115.77222
119.65698
123.03632
126.69557
129.66902
132.0626
133.8057
134.72151
134.61716
133.58411
131.55193
128.62883
125.09722
121.78718
119.97683
121.35245
126.35864
133.50337
140.6915
146.60234
148.973
148.49537
144.61046
140.53367
119.23391
115.27315
35.463839
35.438739
35.415162
35.3931
35.372527
35.353412
35.335743
35.3195
35.304661
35.291203
35.279105
35.268345
35.258901
35.250752
35.243874
35.238243
35.233832
35.230612
35.228619
35.227768
35.22804
35.22945
35.231943
35.235556
35.240212
35.245955
35.252718
35.260561
35.269398
35.279344
35.290272
35.30237
35.315447
35.329793
35.345152
35.361972
35.379845
35.399469
35.420221
35.443175
35.46738
35.494444
35.522973
35.555338
35.589543
35.628991
35.670994
35.720212
35.773418
35.836188
35.904448
36.004855
36.092449
36.014056
36.054906
36.235944
36.566351
37.044005
37.658882
38.413887
39.299429
40.318364
41.462917
42.736045
44.133338
45.657203
47.301549
49.042977
50.828779
52.6398
54.463608
56.291829
58.116023
59.929631
61.72542
63.497603
65.236802
66.913985
68.571095
70.347404
72.163155
74.075352
76.090757
78.225912
80.495037
82.910344
85.485282
88.232393
91.162562
94.282148
97.584805
101.02564
104.35347
107.24884
110.4372
113.00044
115.03102
116.48322
117.17035
116.94542
115.88913
113.95062
111.24495
108.04535
105.10995
103.55676
104.95175
109.85133
117.07349
124.72367
131.52271
135.11224
135.77889
132.80968
129.40831
109.78984
105.54347
31.138644
31.115838
31.094358
31.074197
31.055332
31.037738
31.021402
31.006308
30.992436
30.979768
30.968285
30.95797
30.948801
30.940762
30.933832
30.927991
30.923214
30.919481
30.916815
30.91515
30.914469
30.914784
30.916044
30.918289
30.921444
30.925555
30.930561
30.936516
30.943342
30.951148
30.959816
30.969521
30.980089
30.991786
31.004379
31.018281
31.03312
31.049538
31.066969
31.086399
31.106967
31.130147
31.154685
31.182746
31.21255
31.247202
31.28432
31.328152
31.375877
31.432556
31.494697
31.586803
31.667696
31.590119
31.616628
31.766592
32.048085
32.459509
32.990902
33.645489
34.413852
35.298859
36.293002
37.39926
38.613249
39.937157
41.364852
42.875502
44.425111
45.997868
47.582768
49.172657
50.760133
52.339642
53.904968
55.450996
56.968097
58.430927
59.895516
61.466597
63.071702
64.763392
66.548266
68.436623
70.441412
72.574387
74.845515
77.264505
79.842857
82.584037
85.478741
88.478203
91.325219
93.809411
96.577191
98.781945
100.49663
101.69615
102.18657
101.8713
100.81466
98.985457
96.501339
93.622068
91.028231
89.683851
91.012107
95.635528
102.67941
110.48108
117.87972
122.48231
124.23868
122.16487
119.45805
101.40849
96.991136
27.526084
27.505401
27.485854
27.467434
27.450123
27.4339
27.418753
27.404669
27.391631
27.379623
27.368629
27.358635
27.349623
27.341578
27.334483
27.32832
27.323069
27.318713
27.315268
27.312682
27.310937
27.310051
27.309968
27.310733
27.312275
27.314636
27.317765
27.321706
27.326393
27.331922
27.338189
27.345352
27.353252
27.362132
27.371782
27.382575
27.394176
27.407167
27.42104
27.436684
27.453333
27.472314
27.492518
27.515888
27.540862
27.570223
27.601903
27.639699
27.681204
27.730908
27.7859
27.868495
27.941284
27.864658
27.879515
28.004019
28.244964
28.601178
29.062764
29.633135
30.302954
31.075228
31.94267
32.90821
33.967522
35.122559
36.367249
37.683065
39.033222
40.404613
41.787437
43.17552
44.562304
45.943019
47.312222
48.665206
49.991769
51.273468
52.57223
53.962828
55.384068
56.881407
58.46365
60.135595
61.908563
63.793674
65.799371
67.932194
70.202196
72.611995
75.150155
77.765019
80.198507
82.333576
84.728564
86.622478
88.067111
89.052441
89.381657
89.007373
87.975438
86.272234
84.014049
81.443512
79.163048
77.995234
79.209804
83.453585
90.129944
97.816965
105.53308
110.91462
113.65707
112.43433
110.41866
93.869346
89.403051
24.49622
24.477466
24.45967
24.442824
24.426913
24.411919
24.397833
24.384642
24.372334
24.360894
24.350308
24.340565
24.331649
24.323549
24.316249
24.309734
24.303986
24.298994
24.294765
24.29126
24.288463
24.286386
24.284982
24.284294
24.284253
24.284901
24.286191
24.288161
24.290753
24.294055
24.29797
24.30264
24.307923
24.314037
24.320793
24.328525
24.336933
24.346538
24.356888
24.368776
24.381527
24.396318
24.41218
24.430835
24.450931
24.474923
24.501046
24.532642
24.567694
24.61011
24.657525
24.730116
24.794127
24.718729
24.724193
24.827836
25.035104
25.345169
25.748232
26.247706
26.83448
27.511604
28.272046
29.118615
30.047088
31.059171
32.148934
33.299905
34.481267
35.682088
36.893606
38.110429
39.326693
40.538231
41.740191
42.92804
44.091036
45.220095
46.37493
47.606874
48.867375
50.193926
51.597292
53.079212
54.648636
56.315909
58.088284
59.971049
61.971653
64.091011
66.317471
68.597429
70.677182
72.516427
74.583777
76.210224
77.427535
78.235334
78.438529
78.03345
77.048133
75.483268
73.450537
71.173016
69.17825
68.16353
69.245287
73.061157
79.247375
86.611733
94.388856
100.3065
103.89001
103.4596
102.1071
87.011342
82.611528
21.960432
21.942601
21.925578
21.909352
21.893918
21.879263
21.865371
21.852235
21.839845
21.828189
21.817255
21.807032
21.79751
21.788677
21.780521
21.773029
21.766189
21.759986
21.754409
21.749464
21.745118
21.741356
21.738189
21.735577
21.733555
21.732064
21.73114
21.730741
21.7309
21.731566
21.732815
21.734562
21.736932
21.739799
21.743353
21.747429
21.75232
21.757762
21.764214
21.77128
21.779658
21.788756
21.799612
21.811387
21.825586
21.841055
21.859935
21.880738
21.906367
21.935162
21.970471
22.010415
22.073153
22.128371
22.054563
22.052512
22.139022
22.318228
22.58957
22.943373
23.382961
23.899556
24.496139
25.165975
25.911703
26.72924
27.62004
28.578371
29.589591
30.627804
31.683838
32.749831
33.821018
34.892112
35.95941
37.018503
38.064857
39.088042
40.087805
41.11735
42.210149
43.33017
44.507375
45.752456
47.067685
48.458561
49.934587
51.502099
53.165387
54.930938
56.797056
58.751429