/*--------------------------------*- C++ -*----------------------------------*\
| =========                 |                                                 |
| \\      /  F ield         | OpenFOAM: The Open Source CFD Toolbox           |
|  \\    /   O peration     | Version:  2.4.0                                 |
|   \\  /    A nd           | Web:      www.OpenFOAM.org                      |
|    \\/     M anipulation  |                                                 |
\*---------------------------------------------------------------------------*/
FoamFile
{
    version     2.0;
    format      ascii;
    class       surfaceScalarField;
    location    "15000";
    object      phi;
}
// * * * * * * * * * * * * * * * * * * * * * * * * * * * * * * * * * * * * * //

dimensions      [0 3 -1 0 0 0 0];

internalField   nonuniform List<scalar> 
19176
(
3.0675531e-07
-4.5684665e-08
-6.6866586e-08
-1.5639364e-07
-4.327049e-09
-1.5210126e-07
-4.2918405e-09
-1.4784583e-07
-4.2558115e-09
-1.4362938e-07
-4.2159846e-09
-1.3945371e-07
-4.17584e-09
-1.3532073e-07
-4.1328906e-09
-1.3123207e-07
-4.0880545e-09
-1.2718957e-07
-4.0422529e-09
-1.2319466e-07
-3.9948098e-09
-1.192492e-07
-3.9455133e-09
-1.1535434e-07
-3.8948768e-09
-1.1151187e-07
-3.84235e-09
-1.0772281e-07
-3.789066e-09
-1.0398911e-07
-3.7337212e-09
-1.0031144e-07
-3.6774531e-09
-9.669213e-08
-3.6189406e-09
-9.3131391e-08
-3.5610256e-09
-8.9631988e-08
-3.4993552e-09
-8.6193753e-08
-3.4380861e-09
-8.2820325e-08
-3.3732364e-09
-7.9510707e-08
-3.3095713e-09
-7.6269762e-08
-3.2409092e-09
-7.309549e-08
-3.1741451e-09
-6.9994683e-08
-3.1008481e-09
-6.6963925e-08
-3.0307332e-09
-6.4012881e-08
-2.9508577e-09
-6.1136208e-08
-2.8762289e-09
-5.8347656e-08
-2.788586e-09
-5.5638673e-08
-2.7088837e-09
-5.3029187e-08
-2.6091344e-09
-5.0506739e-08
-2.5221488e-09
-4.8099658e-08
-2.40705e-09
-4.5789545e-08
-2.3098882e-09
-4.3616744e-08
-2.1727932e-09
-4.1554728e-08
-2.0615425e-09
-3.966079e-08
-1.8935252e-09
-3.7896214e-08
-1.7642463e-09
-3.6342772e-08
-1.5532387e-09
-3.4944218e-08
-1.3982826e-09
-3.3817705e-08
-1.1260518e-09
-3.2880674e-08
-9.3660547e-10
-3.2302904e-08
-5.7736388e-10
-3.196208e-08
-3.4076271e-10
-3.2110053e-08
1.4813377e-10
-3.2554923e-08
4.4504697e-10
-3.3604333e-08
1.0493818e-09
-3.4944778e-08
1.3403945e-09
-3.7151749e-08
2.2079508e-09
-3.8160459e-08
1.0090005e-09
-3.8904832e-08
7.4578422e-10
-3.8734529e-08
-1.6992649e-10
-3.8097413e-08
-6.3844346e-10
-3.6730496e-08
-1.3668798e-09
-3.4899897e-08
-1.8290106e-09
-3.2444332e-08
-2.455858e-09
-2.9532482e-08
-2.9126937e-09
-2.6051766e-08
-3.4805821e-09
-2.2099847e-08
-3.9517011e-09
-1.7577287e-08
-4.5222772e-09
-1.2538531e-08
-5.03854e-09
-6.8881138e-09
-5.6497405e-09
-6.3444616e-10
-6.2536805e-09
6.4229387e-09
-7.0582084e-09
1.4219268e-08
-7.7987988e-09
2.2712285e-08
-8.4907918e-09
3.184276e-08
-9.1310724e-09
4.1590188e-08
-9.7475378e-09
5.1917451e-08
-1.0327603e-08
6.279368e-08
-1.0876902e-08
7.4176458e-08
-1.1384183e-08
8.5985386e-08
-1.180912e-08
9.8144302e-08
-1.2159345e-08
1.1048448e-07
-1.2340474e-08
1.2276717e-07
-1.228266e-08
1.343801e-07
-1.1613183e-08
1.4527476e-07
-1.0894381e-08
1.5572501e-07
-1.0450364e-08
1.659252e-07
-1.0200553e-08
1.759972e-07
-1.00736e-08
1.8608562e-07
-1.0089408e-08
1.9628939e-07
-1.02054e-08
2.0677853e-07
-1.0487832e-08
2.1769003e-07
-1.0912921e-08
2.2926174e-07
-1.1570233e-08
2.417293e-07
-1.2468687e-08
2.5566218e-07
-1.393208e-08
2.7193232e-07
-1.6271468e-08
2.9272137e-07
-2.0789407e-08
3.1784251e-07
-2.512202e-08
3.4672987e-07
-2.8888029e-08
3.7985246e-07
-3.312292e-08
4.1792064e-07
-3.8068316e-08
4.623105e-07
-4.4389634e-08
5.1410302e-07
-5.1792188e-08
5.7579257e-07
-6.1688938e-08
6.4877487e-07
-7.2979539e-08
7.3538227e-07
-8.6606478e-08
8.3347702e-07
-9.8091648e-08
9.4256025e-07
-1.0908226e-07
1.0438258e-06
-1.0126195e-07
1.1051705e-06
-6.1341342e-08
1.0719317e-06
3.323829e-08
9.7555196e-07
9.6380552e-08
8.279142e-07
1.4763545e-07
6.7872326e-07
1.4919091e-07
5.2378336e-07
1.549376e-07
4.1415704e-07
1.0962788e-07
3.1278699e-07
1.0136776e-07
2.8309586e-07
2.9693595e-08
2.1415789e-08
9.9126083e-07
-1.7571554e-07
-2.226764e-07
-4.8204246e-07
-1.7769908e-08
-4.687082e-07
-1.7625527e-08
-4.5548914e-07
-1.747529e-08
-4.4239138e-07
-1.7313279e-08
-4.2942071e-07
-1.7146682e-08
-4.1658284e-07
-1.6970686e-08
-4.0388301e-07
-1.678719e-08
-3.9132667e-07
-1.6598333e-08
-3.7891865e-07
-1.6402768e-08
-3.6666415e-07
-1.6200122e-08
-3.5456744e-07
-1.5991638e-08
-3.4263326e-07
-1.5776394e-08
-3.3086581e-07
-1.555657e-08
-3.1926988e-07
-1.5329729e-08
-3.078491e-07
-1.5098038e-08
-2.9660883e-07
-1.4858883e-08
-2.855521e-07
-1.461808e-08
-2.7468461e-07
-1.4366837e-08
-2.6400946e-07
-1.411311e-08
-2.5353353e-07
-1.3849008e-08
-2.4325924e-07
-1.3583872e-08
-2.33195e-07
-1.3305162e-08
-2.2334289e-07
-1.3026199e-08
-2.1371398e-07
-1.272985e-08
-2.0430997e-07
-1.2434757e-08
-1.9514602e-07
-1.2114631e-08
-1.8622368e-07
-1.1798055e-08
-1.7756377e-07
-1.1448574e-08
-1.6916642e-07
-1.1106192e-08
-1.6106138e-07
-1.0713891e-08
-1.5324883e-07
-1.0334426e-08
-1.4577003e-07
-9.8859054e-09
-1.3862421e-07
-9.4555166e-09
-1.3186897e-07
-8.9281574e-09
-1.2550338e-07
-8.4266279e-09
-1.1960747e-07
-7.7889605e-09
-1.1417873e-07
-7.1926039e-09
-1.0932968e-07
-6.4020803e-09
-1.0505545e-07
-5.6722103e-09
-1.0151579e-07
-4.665217e-09
-9.8699233e-08
-3.7527635e-09
-9.6838714e-08
-2.4374589e-09
-9.5906956e-08
-1.2724729e-09
-9.6262414e-08
5.0373309e-10
-9.781463e-08
1.9974511e-09
-1.0092475e-07
4.1595229e-09
-1.0535587e-07
5.7714691e-09
-1.1196814e-07
8.8213649e-09
-1.1530413e-07
4.3453898e-09
-1.1734817e-07
2.7914681e-09
-1.1692694e-07
-5.9084478e-10
-1.1474024e-07
-2.8267783e-09
-1.1055424e-07
-5.5528048e-09
-1.047129e-07
-7.6686159e-09
-9.711706e-08
-1.0052246e-08
-8.7958931e-08
-1.2071892e-08
-7.7166283e-08
-1.4273102e-08
-6.481179e-08
-1.6306029e-08
-5.0783924e-08
-1.8549954e-08
-3.5087484e-08
-2.0734875e-08
-1.7571779e-08
-2.3164906e-08
1.8633219e-09
-2.5689008e-08
2.371889e-08
-2.8914871e-08
4.78753e-08
-3.1957624e-08
7.4143345e-08
-3.4756494e-08
1.0238065e-07
-3.736908e-08
1.3249816e-07
-3.9865095e-08
1.6439494e-07
-4.2224726e-08
1.9797333e-07
-4.4455818e-08
2.3309231e-07
-4.6504474e-08
2.6952788e-07
-4.8244873e-08
3.0701381e-07
-4.9645743e-08
3.4508268e-07
-5.040959e-08
3.8291945e-07
-5.011942e-08
4.1877681e-07
-4.7470817e-08
4.5244096e-07
-4.4558184e-08
4.8475953e-07
-4.2769129e-08
5.1628552e-07
-4.1726894e-08
5.4742662e-07
-4.1216453e-08
5.78595e-07
-4.1258731e-08
6.1013111e-07
-4.1743039e-08
6.4249885e-07
-4.2854135e-08
6.7618657e-07
-4.4602039e-08
7.1182495e-07
-4.7207086e-08
7.5027182e-07
-5.0916803e-08
7.9308599e-07
-5.674546e-08
8.4319957e-07
-6.6386554e-08
9.0683827e-07
-8.4428444e-08
9.8371734e-07
-1.0200194e-07
1.0722454e-06
-1.1741672e-07
1.1736306e-06
-1.3450844e-07
1.2904233e-06
-1.5486107e-07
1.4261741e-06
-1.801401e-07
1.5851171e-06
-2.1073474e-07
1.7733931e-06
-2.4996414e-07
1.9972358e-06
-2.9681924e-07
2.2605899e-06
-3.4995951e-07
2.5616999e-06
-3.991985e-07
2.8917241e-06
-4.3910569e-07
3.2042141e-06
-4.1374829e-07
3.3886818e-06
-2.4580562e-07
3.307268e-06
1.1465126e-07
3.0165391e-06
3.8711024e-07
2.5887811e-06
5.7539071e-07
2.1222457e-06
6.1572624e-07
1.6722942e-06
6.0488635e-07
1.3047592e-06
4.771648e-07
1.0309506e-06
3.7517378e-07
8.8132436e-07
1.7932318e-07
4.1544748e-08
1.7636986e-06
-3.8939934e-07
-4.5304804e-07
-8.3104805e-07
-4.1101075e-08
-8.0790615e-07
-4.0766866e-08
-7.8496471e-07
-4.0417177e-08
-7.622342e-07
-4.0043282e-08
-7.3972477e-07
-3.9656294e-08
-7.1744613e-07
-3.9249247e-08
-6.9540754e-07
-3.882507e-08
-6.7361824e-07
-3.8387368e-08
-6.5208686e-07
-3.7934061e-08
-6.3082205e-07
-3.746502e-08
-6.0983167e-07
-3.698208e-08
-5.8912339e-07
-3.6484535e-08
-5.687052e-07
-3.5974788e-08
-5.4858458e-07
-3.5450398e-08
-5.287689e-07
-3.4913481e-08
-5.0926613e-07
-3.4361282e-08
-4.9008325e-07
-3.3801279e-08
-4.7122811e-07
-3.3221939e-08
-4.5270867e-07
-3.2632392e-08
-4.3453379e-07
-3.202369e-08
-4.1671151e-07
-3.1406129e-08
-3.9925185e-07
-3.0764817e-08
-3.8216418e-07
-3.011377e-08
-3.654608e-07
-2.9433307e-08
-3.4915322e-07
-2.8742328e-08
-3.3325749e-07
-2.8010177e-08
-3.1778893e-07
-2.7266101e-08
-3.027685e-07
-2.6469054e-08
-2.8821506e-07
-2.5659522e-08
-2.7415788e-07
-2.4770698e-08
-2.6062442e-07
-2.3867575e-08
-2.4765369e-07
-2.2856636e-08
-2.3528377e-07
-2.1825201e-08
-2.2356736e-07
-2.0644633e-08
-2.1255973e-07
-1.9433759e-08
-2.0233143e-07
-1.8016799e-08
-1.9296023e-07
-1.6563414e-08
-1.8454271e-07
-1.4819375e-08
-1.7718886e-07
-1.3025761e-08
-1.7103337e-07
-1.0820178e-08
-1.6622724e-07
-8.5584351e-09
-1.6296899e-07
-5.6952582e-09
-1.614573e-07
-2.7841079e-09
-1.6201738e-07
1.0639625e-09
-1.6484587e-07
4.8261147e-09
-1.7016006e-07
9.4736741e-09
-1.7806547e-07
1.3676795e-08
-1.8934858e-07
2.0105637e-08
-1.9525732e-07
1.0254487e-08
-1.9857228e-07
6.1080566e-09
-1.9788007e-07
-1.2827994e-09
-1.9391002e-07
-6.7985382e-09
-1.8666616e-07
-1.2796574e-08
-1.7640799e-07
-1.7925151e-08
-1.632429e-07
-2.3218061e-08
-1.4727395e-07
-2.8041938e-08
-1.2856591e-07
-3.2980963e-08
-1.0708717e-07
-3.7784688e-08
-8.2778843e-08
-4.2858194e-08
-5.553616e-08
-4.7977488e-08
-2.5198526e-08
-5.3502034e-08
8.4975515e-09
-5.9385358e-08
4.633201e-08
-6.6750285e-08
8.8154934e-08
-7.3782686e-08
1.3359854e-07
-8.0197706e-08
1.8244984e-07
-8.6221172e-08
2.3453231e-07
-9.1947556e-08
2.8968179e-07
-9.7374588e-08
3.4772942e-07
-1.0250368e-07
4.0842061e-07
-1.0719656e-07
4.7139138e-07
-1.1121576e-07
5.3614844e-07
-1.1440319e-07
6.0192124e-07
-1.1618246e-07
6.6726452e-07
-1.1546262e-07
7.2926788e-07
-1.0947428e-07
7.8751615e-07
-1.0280599e-07
8.434662e-07
-9.8719354e-08
8.9805172e-07
-9.6312472e-08
9.5198295e-07
-9.514914e-08
1.0059267e-06
-9.5203001e-08
1.0605204e-06
-9.6337868e-08
1.1165113e-06
-9.8843218e-08
1.1747957e-06
-1.0288756e-07
1.2363865e-06
-1.0879606e-07
1.3028794e-06
-1.1741076e-07
1.3767872e-06
-1.3065218e-07
1.4633895e-06
-1.5299027e-07
1.5729537e-06
-1.9399264e-07
1.7052399e-06
-2.3428881e-07
1.857611e-06
-2.6978804e-07
2.0320257e-06
-3.0892299e-07
2.2330368e-06
-3.5587189e-07
2.4663133e-06
-4.1341607e-07
2.7396176e-06
-4.8403827e-07
3.062491e-06
-5.7283655e-07
3.446755e-06
-6.8108018e-07
3.8968759e-06
-8.0007946e-07
4.4128979e-06
-9.1521733e-07
4.9747372e-06
-1.0009447e-06
5.5103274e-06
-9.4933538e-07
5.8251099e-06
-5.605852e-07
5.7060098e-06
2.3375005e-07
5.2201782e-06
8.7294245e-07
4.5115686e-06
1.2839973e-06
3.7106796e-06
1.4166152e-06
2.9574537e-06
1.3581095e-06
2.3046145e-06
1.1300059e-06
1.8569695e-06
8.2281584e-07
1.5572141e-06
4.7908179e-07
4.8762433e-08
2.6264985e-06
-6.8551505e-07
-7.5917059e-07
-1.2041698e-06
-7.513787e-08
-1.17041e-06
-7.4526167e-08
-1.1369434e-06
-7.3884091e-08
-1.1037852e-06
-7.3201068e-08
-1.0709501e-06
-7.2491455e-08
-1.0384523e-06
-7.1746977e-08
-1.0063053e-06
-7.0971325e-08
-9.7452238e-07
-7.0169956e-08
-9.431164e-07
-6.9339966e-08
-9.1209966e-07
-6.8481858e-08
-8.8148388e-07
-6.7597914e-08
-8.5127999e-07
-6.6688285e-08
-8.2149999e-07
-6.5754824e-08
-7.9215435e-07
-6.4796103e-08
-7.6325447e-07
-6.3813141e-08
-7.3481121e-07
-6.2804234e-08
-7.0683574e-07
-6.177702e-08
-6.7933841e-07
-6.0719241e-08
-6.5233233e-07
-5.9638323e-08
-6.2582867e-07
-5.8527164e-08
-5.9984145e-07
-5.7393346e-08
-5.7438266e-07
-5.6223611e-08
-5.4946939e-07
-5.5026962e-08
-5.2511558e-07
-5.3787187e-08
-5.0134313e-07
-5.2514785e-08
-4.7816949e-07
-5.1183627e-08
-4.5562445e-07
-4.9810575e-08
-4.3372978e-07
-4.8363779e-08
-4.1252401e-07
-4.6865222e-08
-3.9203683e-07
-4.525756e-08
-3.7232421e-07
-4.3579887e-08
-3.5342403e-07
-4.1756858e-08
-3.3541505e-07
-3.9833966e-08
-3.1834644e-07
-3.7713352e-08
-3.0233221e-07
-3.544746e-08
-2.8743517e-07
-3.2913339e-08
-2.7381702e-07
-3.0181151e-08
-2.615606e-07
-2.7075567e-08
-2.5089589e-07
-2.3690161e-08
-2.4193545e-07
-1.9780061e-08
-2.3499992e-07
-1.5493525e-08
-2.3025751e-07
-1.0437207e-08
-2.2814255e-07
-4.8990208e-09
-2.2895301e-07
1.8745827e-09
-2.3318504e-07
9.0583532e-09
-2.4092455e-07
1.7213181e-08
-2.5263609e-07
2.5388281e-08
-2.6895181e-07
3.642258e-08
-2.7760554e-07
1.890865e-08
-2.8222432e-07
1.0728584e-08
-2.8116694e-07
-2.339868e-09
-2.7520846e-07
-1.2758867e-08
-2.6460057e-07
-2.3404306e-08
-2.4952197e-07
-3.3001947e-08
-2.30296e-07
-4.2444744e-08
-2.069358e-07
-5.1403299e-08
-1.7964878e-07
-6.0267778e-08
-1.4829373e-07
-6.9139613e-08
-1.1286704e-07
-7.8284718e-08
-7.3149897e-08
-8.7694563e-08
-2.8968736e-08
-9.7682718e-08
2.0115059e-08
-1.0846941e-07
7.5175463e-08
-1.2181192e-07
1.3602713e-07
-1.3463641e-07
2.0211461e-07
-1.4628311e-07
2.7314482e-07
-1.5725213e-07
3.4885316e-07
-1.6765603e-07
4.290061e-07
-1.7752789e-07
5.1335372e-07
-1.8685165e-07
6.0152306e-07
-1.9536698e-07
6.9299045e-07
-2.0268329e-07
7.8703948e-07
-2.0845266e-07
8.8256808e-07
-2.1171119e-07
9.7744643e-07
-2.1034094e-07
1.0675519e-06
-1.9958e-07
1.152286e-06
-1.8753978e-07
1.2337039e-06
-1.8013752e-07
1.3131378e-06
-1.757467e-07
1.391639e-06
-1.7365203e-07
1.4701399e-06
-1.7370472e-07
1.5495878e-06
-1.7578693e-07
1.6310134e-06
-1.8026745e-07
1.7157753e-06
-1.8765058e-07
1.8052784e-06
-1.982978e-07
1.9018855e-06
-2.1401893e-07
2.0092081e-06
-2.3797417e-07
2.1349233e-06
-2.7870693e-07
2.2935558e-06
-3.5262556e-07
2.4848814e-06
-4.2561519e-07
2.7053479e-06
-4.9025502e-07
2.9575856e-06
-5.6116085e-07
3.248304e-06
-6.4659022e-07
3.5853468e-06
-7.5045852e-07
3.9802279e-06
-8.7891877e-07
4.4458726e-06
-1.0384802e-06
4.9997437e-06
-1.2349485e-06
5.6470978e-06
-1.4474324e-06
6.3892257e-06
-1.6573424e-06
7.1944919e-06
-1.80621e-06
7.9638589e-06
-1.7186991e-06
8.4193552e-06
-1.0160783e-06
8.2718861e-06
3.8121807e-07
7.5962119e-06
1.5486173e-06
6.60338e-06
2.2768262e-06
5.4588106e-06
2.5611845e-06
4.3862606e-06
2.4306566e-06
3.4317249e-06
2.0845436e-06
2.7932241e-06
1.4613138e-06
2.33242e-06
9.3988949e-07
5.0799867e-08
3.5885388e-06
-1.0616454e-06
-1.1416721e-06
-1.6021071e-06
-1.2074432e-07
-1.5568731e-06
-1.1975978e-07
-1.5120329e-06
-1.1872459e-07
-1.4676069e-06
-1.1762665e-07
-1.4236148e-06
-1.1648367e-07
-1.3800753e-06
-1.1528634e-07
-1.3370067e-06
-1.1403917e-07
-1.2944267e-06
-1.1274965e-07
-1.2523525e-06
-1.114141e-07
-1.2108005e-06
-1.1003399e-07
-1.1697864e-06
-1.0861203e-07
-1.1293248e-06
-1.0714973e-07
-1.0894321e-06
-1.0564759e-07
-1.0501218e-06
-1.0410637e-07
-1.0114099e-06
-1.0252486e-07
-9.733102e-07
-1.0090355e-07
-9.3583855e-07
-9.9248916e-08
-8.9900803e-07
-9.7549708e-08
-8.6283725e-07
-9.5808927e-08
-8.2734008e-07
-9.4024099e-08
-7.9253684e-07
-9.2196563e-08
-7.5844192e-07
-9.0318512e-08
-7.2508055e-07
-8.8388212e-08
-6.9246886e-07
-8.6398926e-08
-6.606396e-07
-8.4344027e-08
-6.2961229e-07
-8.221073e-08
-5.9943188e-07
-7.9990443e-08
-5.7012174e-07
-7.7673942e-08
-5.41741e-07
-7.5245814e-08
-5.143207e-07
-7.2677434e-08
-4.8794669e-07
-6.9953541e-08
-4.6265698e-07
-6.7046546e-08
-4.3857276e-07
-6.3917914e-08
-4.1574131e-07
-6.0544832e-08
-3.9433789e-07
-5.6850357e-08
-3.7441965e-07
-5.2831085e-08
-3.5623577e-07
-4.8364638e-08
-3.3985804e-07
-4.3453044e-08
-3.2564136e-07
-3.7906537e-08
-3.1367984e-07
-3.1741007e-08
-3.0447057e-07
-2.4702295e-08
-2.981566e-07
-1.67507e-08
-2.9541709e-07
-7.6384676e-09
-2.9653012e-07
2.98777e-09
-3.0230314e-07
1.4831569e-08
-3.1270639e-07
2.7616365e-08
-3.2857909e-07
4.1260879e-08
-3.503052e-07
5.8149914e-08
-3.6187866e-07
3.0482495e-08
-3.6782534e-07
1.6676952e-08
-3.6629273e-07
-3.8722172e-09
-3.5812108e-07
-2.0932391e-08
-3.438157e-07
-3.7709541e-08
-3.2348675e-07
-5.3329209e-08
-2.9767461e-07
-6.8257692e-08
-2.663056e-07
-8.277347e-08
-2.2973535e-07
-9.6837787e-08
-1.8770977e-07
-1.1116514e-07
-1.4028156e-07
-1.2571284e-07
-8.7112255e-08
-1.408638e-07
-2.8013839e-08
-1.567807e-07
3.7640028e-08
-1.7412347e-07
1.112315e-07
-1.9540447e-07
1.9253607e-07
-2.1594273e-07
2.8079773e-07
-2.3454283e-07
3.7564242e-07
-2.5209761e-07
4.7670541e-07
-2.6871914e-07
5.8368201e-07
-2.8450489e-07
6.9623183e-07
-2.9940162e-07
8.1386212e-07
-3.1299805e-07
9.3587796e-07
-3.2469921e-07
1.0613073e-06
-3.3388234e-07
1.188709e-06
-3.3911294e-07
1.3152082e-06
-3.3684002e-07
1.4354793e-06
-3.1985121e-07
1.5486613e-06
-3.0072136e-07
1.6574842e-06
-2.8896065e-07
1.7636661e-06
-2.8192865e-07
1.8685877e-06
-2.7857499e-07
1.9735099e-06
-2.7862733e-07
2.0796672e-06
-2.8194509e-07
2.1884353e-06
-2.8903394e-07
2.3016108e-06
-3.0082682e-07
2.4210739e-06
-3.177593e-07
2.5499579e-06
-3.4290382e-07
2.6930388e-06
-3.8105417e-07
2.8606127e-06
-4.4628202e-07
3.0714875e-06
-5.6350056e-07
3.325619e-06
-6.7974724e-07
3.6184113e-06
-7.8304748e-07
3.9534285e-06
-8.9617766e-07
4.3393961e-06
-1.0325574e-06
4.7865285e-06
-1.1975904e-06
5.3101102e-06
-1.4024996e-06
5.9268022e-06
-1.655171e-06
6.6595032e-06
-1.9676466e-06
7.5143397e-06
-2.3022678e-06
8.4935005e-06
-2.6365003e-06
9.5536422e-06
-2.8663512e-06
1.0567308e-05
-2.7323625e-06
1.1174741e-05
-1.6235084e-06
1.1009973e-05
5.4598481e-07
1.0152316e-05
2.4062747e-06
8.8740938e-06
3.5550457e-06
7.3784261e-06
4.056852e-06
5.9710823e-06
3.8379974e-06
4.6988239e-06
3.356804e-06
3.8514467e-06
2.308688e-06
3.2183925e-06
1.5729468e-06
5.6780607e-08
4.6595579e-06
-1.5140975e-06
-1.6005235e-06
-2.0254777e-06
-1.7883211e-07
-1.9678657e-06
-1.7737135e-07
-1.9107567e-06
-1.7583375e-07
-1.8541764e-06
-1.7420652e-07
-1.79815e-06
-1.725101e-07
-1.7427012e-06
-1.7073504e-07
-1.6878532e-06
-1.688864e-07
-1.6336285e-06
-1.669741e-07
-1.5800489e-06
-1.6499361e-07
-1.5271352e-06
-1.6294777e-07
-1.4749077e-06
-1.6083959e-07
-1.4233847e-06
-1.5867257e-07
-1.3725873e-06
-1.5644512e-07
-1.3225326e-06
-1.5416112e-07
-1.273241e-06
-1.5181619e-07
-1.2247302e-06
-1.4941413e-07
-1.1770206e-06
-1.4695874e-07
-1.1301285e-06
-1.4444174e-07
-1.0840784e-06
-1.4185891e-07
-1.0388871e-06
-1.3921512e-07
-9.9458181e-07
-1.365019e-07
-9.5117968e-07
-1.3372065e-07
-9.087145e-07
-1.308533e-07
-8.672052e-07
-1.2790829e-07
-8.2669587e-07
-1.2485335e-07
-7.8720887e-07
-1.2169753e-07
-7.4880495e-07
-1.1839376e-07
-7.1151001e-07
-1.1496892e-07
-6.7540463e-07
-1.1135111e-07
-6.4052251e-07
-1.0755921e-07
-6.0698048e-07
-1.0349525e-07
-5.748182e-07
-9.9208861e-08
-5.4420105e-07
-9.453483e-08
-5.1517636e-07
-8.956963e-08
-4.8798298e-07
-8.4043182e-08
-4.6267497e-07
-7.8138565e-08
-4.3959226e-07
-7.1446933e-08
-4.1879897e-07
-6.4246093e-08
-4.0077951e-07
-5.5925681e-08
-3.8561404e-07
-4.6905887e-08
-3.7398253e-07
-3.6333352e-08
-3.6600914e-07
-2.4723616e-08
-3.626264e-07
-1.1021167e-08
-3.6410123e-07
4.4627559e-09
-3.7156354e-07
2.2294101e-08
-3.8488718e-07
4.0939999e-08
-4.0530022e-07
6.1673854e-08
-4.3283023e-07
8.5681222e-08
-4.4750002e-07
4.5152757e-08
-4.5478806e-07
2.3966824e-08
-4.5265269e-07
-6.007274e-09
-4.4201995e-07
-3.1567145e-08
-4.2366034e-07
-5.6068964e-08
-3.9761843e-07
-7.9369239e-08
-3.6466053e-07
-1.0121635e-07
-3.2463172e-07
-1.2280354e-07
-2.7803269e-07
-1.4343658e-07
-2.244995e-07
-1.6469821e-07
-1.641384e-07
-1.8607378e-07
-9.6490675e-08
-2.0851146e-07
-2.1349441e-08
-2.3192155e-07
6.2110779e-08
-2.5758387e-07
1.5559656e-07
-2.8889159e-07
2.588382e-07
-3.191861e-07
3.7086858e-07
-3.4657153e-07
4.9122692e-07
-3.7245667e-07
6.1944337e-07
-3.9693581e-07
7.5513193e-07
-4.2019384e-07
8.978618e-07
-4.421319e-07
1.0470027e-06
-4.6214e-07
1.2016848e-06
-4.7938147e-07
1.3606784e-06
-4.9287631e-07
1.5221505e-06
-5.0058513e-07
1.6824716e-06
-4.9716114e-07
1.8349985e-06
-4.7237837e-07
1.9787239e-06
-4.4444642e-07
2.1169564e-06
-4.2719351e-07
2.2518507e-06
-4.1682325e-07
2.3851485e-06
-4.1187445e-07
2.5184336e-06
-4.119132e-07
2.6532412e-06
-4.1675373e-07
2.7913475e-06
-4.2713907e-07
2.9349968e-06
-4.4447707e-07
3.0865247e-06
-4.69286e-07
3.2499214e-06
-5.0630146e-07
3.4312421e-06
-5.6237441e-07
3.6434282e-06
-6.5846951e-07
3.9097844e-06
-8.2985727e-07
4.2304635e-06
-1.0004271e-06
4.6000051e-06
-1.1525896e-06
5.0226644e-06
-1.318837e-06
5.5095907e-06
-1.5194837e-06
6.0731909e-06
-1.76119e-06
6.7327627e-06
-2.0620709e-06
7.5086506e-06
-2.4310578e-06
8.4292338e-06
-2.8882271e-06
9.5016393e-06
-3.374672e-06
1.0728403e-05
-3.8632612e-06
1.2054616e-05
-4.1925629e-06
1.3322623e-05
-4.0003664e-06
1.4093754e-05
-2.3946363e-06
1.3924658e-05
7.1507876e-07
1.2895593e-05
3.4353406e-06
1.1333406e-05
5.1172296e-06
9.4814327e-06
5.9088253e-06
7.7248646e-06
5.5945625e-06
6.1193939e-06
4.9622767e-06
5.0443292e-06
3.3837497e-06
4.2276408e-06
2.389639e-06
7.7308864e-08
5.8501029e-06
-2.0376832e-06
-2.134968e-06
-2.4747866e-06
-2.5036176e-07
-2.4038448e-06
-2.483128e-07
-2.3335242e-06
-2.4615457e-07
-2.2638563e-06
-2.4387406e-07
-2.1948718e-06
-2.4149457e-07
-2.1266e-06
-2.3900677e-07
-2.0590694e-06
-2.3641631e-07
-1.9923074e-06
-2.3373575e-07
-1.9263411e-06
-2.3095982e-07
-1.861196e-06
-2.2809303e-07
-1.796897e-06
-2.2513868e-07
-1.7334666e-06
-2.2210277e-07
-1.6709309e-06
-2.1898089e-07
-1.609311e-06
-2.1578103e-07
-1.5486321e-06
-2.1249477e-07
-1.4889159e-06
-2.0913004e-07
-1.4301879e-06
-2.0568697e-07
-1.372468e-06
-2.0216159e-07
-1.3157866e-06
-1.9854003e-07
-1.2601645e-06
-1.9483699e-07
-1.2056356e-06
-1.9103079e-07
-1.1522206e-06
-1.8713562e-07
-1.0999623e-06
-1.8311151e-07
-1.048883e-06
-1.7898764e-07
-9.9903869e-07
-1.7469763e-07
-9.5045537e-07
-1.7028062e-07
-9.0321026e-07
-1.656383e-07
-8.5733284e-07
-1.6084635e-07
-8.1292605e-07
-1.5575772e-07
-7.700275e-07
-1.504573e-07
-7.2878627e-07
-1.447361e-07
-6.8924548e-07
-1.3874961e-07
-6.5161618e-07
-1.3216383e-07
-6.1594812e-07
-1.2523771e-07
-5.8254595e-07
-1.1744481e-07
-5.5146362e-07
-1.0922039e-07
-5.2313493e-07
-9.9775224e-08
-4.9762028e-07
-8.9760479e-08
-4.7553787e-07
-7.8007772e-08
-4.5695936e-07
-6.5483808e-08
-4.4275342e-07
-5.0538764e-08
-4.3303289e-07
-3.4443659e-08
-4.2899142e-07
-1.5062591e-08
-4.3089507e-07
6.3665701e-09
-4.4020653e-07
3.1605746e-08
-4.5672639e-07
5.7459769e-08
-4.8208404e-07
8.7031402e-08
-5.1582701e-07
1.1942548e-07
-5.3376871e-07
6.3094869e-08
-5.4240061e-07
3.2600465e-08
-5.3951542e-07
-8.8922162e-09
-5.2615105e-07
-4.4933541e-08
-5.0334975e-07
-7.8870112e-08
-4.7110247e-07
-1.116148e-07
-4.3040635e-07
-1.4191334e-07
-3.8102658e-07
-1.7218457e-07
-3.2361379e-07
-2.0084912e-07
-2.5769221e-07
-2.3061975e-07
-1.8342212e-07
-2.603438e-07
-1.0022006e-07
-2.9171346e-07
-7.859578e-09
-3.242817e-07
9.4697313e-08
-3.6014085e-07
2.0949697e-07
-4.0369237e-07
3.362201e-07
-4.4591059e-07
4.7367624e-07
-4.8402616e-07
6.213125e-07
-5.2009368e-07
7.7855095e-07
-5.5417448e-07
9.4490629e-07
-5.8654963e-07
1.1198687e-06
-6.1709446e-07
1.3026561e-06
-6.449282e-07
1.4921925e-06
-6.6891787e-07
1.6869882e-06
-6.8767239e-07
1.8848051e-06
-6.9840197e-07
2.0812046e-06
-6.9356051e-07
2.2682471e-06
-6.5942095e-07
2.4446536e-06
-6.2085251e-07
2.6143879e-06
-5.9692803e-07
2.7800579e-06
-5.824932e-07
2.9437889e-06
-5.7560673e-07
3.1074353e-06
-5.7556004e-07
3.2729785e-06
-5.8229747e-07
3.4424379e-06
-5.9659705e-07
3.6186541e-06
-6.206938e-07
3.8044428e-06
-6.5507333e-07
4.0047042e-06
-7.065634e-07
4.2267505e-06
-7.8441998e-07
4.4864427e-06
-9.1816268e-07
4.8116122e-06
-1.155027e-06
5.2027142e-06
-1.3915295e-06
5.6533133e-06
-1.6031887e-06
6.1687691e-06
-1.8342924e-06
6.7621475e-06
-2.1128616e-06
7.4487602e-06
-2.447802e-06
8.2514881e-06
-2.8647978e-06
9.1946781e-06
-3.3742464e-06
1.0312051e-05
-4.0055971e-06
1.1611828e-05
-4.6744474e-06
1.309632e-05
-5.3477514e-06
1.4698934e-05
-5.7951755e-06
1.6231387e-05
-5.5328169e-06
1.7178416e-05
-3.3416626e-06
1.7019616e-05
8.7387695e-07
1.5832311e-05
4.6226466e-06
1.399042e-05
6.9591173e-06
1.1779633e-05
8.1196122e-06
9.6607553e-06
7.7134367e-06
7.707643e-06
6.915391e-06
6.3854742e-06
4.7059151e-06
5.3736528e-06
3.4014636e-06
1.2444011e-07
7.1716009e-06
-2.6256731e-06
-2.7432931e-06
-2.9503826e-06
-3.3634185e-07
-2.8651114e-06
-3.3358361e-07
-2.7805891e-06
-3.3067708e-07
-2.6968531e-06
-3.2760963e-07
-2.6139407e-06
-3.2440699e-07
-2.5318865e-06
-3.2106081e-07
-2.4507249e-06
-3.1757718e-07
-2.3704887e-06
-3.1397158e-07
-2.2912106e-06
-3.1023793e-07
-2.2129208e-06
-3.0638297e-07
-2.1356494e-06
-3.024101e-07
-2.0594237e-06
-2.983283e-07
-1.9842748e-06
-2.9412982e-07
-1.9102283e-06
-2.8982766e-07
-1.8373145e-06
-2.8540829e-07
-1.7655594e-06
-2.8088491e-07
-1.694994e-06
-2.7625255e-07
-1.6256422e-06
-2.7151334e-07
-1.5575411e-06
-2.6664103e-07
-1.4907152e-06
-2.6166266e-07
-1.4252059e-06
-2.5654008e-07
-1.3610381e-06
-2.5130341e-07
-1.2982639e-06
-2.4588566e-07
-1.2369097e-06
-2.4034185e-07
-1.1770441e-06
-2.3456329e-07
-1.1186974e-06
-2.2862704e-07
-1.0619642e-06
-2.2237093e-07
-1.0068785e-06
-2.1593199e-07
-9.5356666e-07
-2.090695e-07
-9.0207165e-07
-2.0195196e-07
-8.5257593e-07
-1.9423149e-07
-8.0512798e-07
-1.8619759e-07
-7.5998626e-07
-1.7730529e-07
-7.1720544e-07
-1.6801865e-07
-6.7715805e-07
-1.5749163e-07
-6.3990143e-07
-1.4647645e-07
-6.0596607e-07
-1.3371016e-07
-5.7541337e-07
-1.2031293e-07
-5.4899917e-07
-1.0442164e-07
-5.2679292e-07
-8.7689445e-08
-5.0985739e-07
-6.7473835e-08
-4.9830291e-07
-4.5997667e-08
-4.9359107e-07
-1.9774396e-08
-4.9599911e-07
8.774755e-09
-5.0733178e-07
4.2938637e-08
-5.2734376e-07
7.747175e-08
-5.580763e-07
1.1776388e-07
-5.9845575e-07
1.598063e-07
-6.1984479e-07
8.4484442e-08
-6.2980791e-07
4.2565493e-08
-6.260034e-07
-1.2696407e-08
-6.0961208e-07
-6.1327034e-08
-5.8195335e-07
-1.0652863e-07
-5.4297518e-07
-1.5059103e-07
-4.9391022e-07
-1.9097912e-07
-4.3445135e-07
-2.316448e-07
-3.6539976e-07
-2.6990047e-07
-2.8616495e-07
-3.0985445e-07
-1.9696186e-07
-3.4954675e-07
-9.7081256e-08
-3.91594e-07
1.372376e-08
-4.3508643e-07
1.3671854e-07
-4.8313574e-07
2.7430887e-07
-5.4128413e-07
4.2611364e-07
-5.977168e-07
5.9071383e-07
-6.4862502e-07
7.6745082e-07
-6.968314e-07
9.5563435e-07
-7.4235832e-07
1.1546979e-06
-7.8561364e-07
1.3640047e-06
-8.264017e-07
1.582625e-06
-8.6354962e-07
1.8092912e-06
-8.9558413e-07
2.0422067e-06
-9.2058832e-07
2.2787184e-06
-9.3491377e-07
2.5135303e-06
-9.2837235e-07
2.7373445e-06
-8.8323555e-07
2.9486724e-06
-8.3218006e-07
3.1521224e-06
-8.0037841e-07
3.3507426e-06
-7.8111363e-07
3.5469972e-06
-7.7186307e-07
3.74317e-06
-7.7173363e-07
3.9414898e-06
-7.8061805e-07
4.1445246e-06
-7.9963097e-07
4.3554907e-06
-8.316606e-07
4.5777847e-06
-8.773664e-07
4.8173134e-06
-9.4609285e-07
5.0827199e-06
-1.0498262e-06
5.3928301e-06
-1.2282742e-06
5.7801539e-06
-1.5423513e-06
6.2454396e-06
-1.8568159e-06
6.7816084e-06
-2.139358e-06
7.3948134e-06
-2.4474973e-06
8.1004909e-06
-2.8185389e-06
8.9164102e-06
-3.2637208e-06
9.8693721e-06
-3.817759e-06
1.0987995e-05
-4.4928677e-06
1.2310677e-05
-5.328277e-06
1.3847085e-05
-6.2108537e-06
1.5598816e-05
-7.0994801e-06
1.7487531e-05
-7.6838894e-06
1.9293544e-05
-7.3388265e-06
2.042923e-05
-4.4773456e-06
2.0297071e-05
1.0060341e-06
1.8967588e-05
5.9521308e-06
1.6853485e-05
9.0732161e-06
1.428435e-05
1.0688747e-05
1.1792155e-05
1.0205629e-05
9.4782017e-06
9.2293459e-06
7.8892243e-06
6.2948893e-06
6.6709099e-06
4.6197819e-06
2.1173212e-07
8.6361168e-06
-3.2695955e-06
-3.4227562e-06
-3.4523954e-06
-4.3782761e-07
-3.3517493e-06
-4.3422939e-07
-3.2519898e-06
-4.3043684e-07
-3.1531609e-06
-4.2643818e-07
-3.055306e-06
-4.2226179e-07
-2.9584664e-06
-4.1790033e-07
-2.8626822e-06
-4.1336065e-07
-2.7679923e-06
-4.086612e-07
-2.6744348e-06
-4.0379541e-07
-2.5820456e-06
-3.9877223e-07
-2.4908603e-06
-3.9359551e-07
-2.4009109e-06
-3.8827756e-07
-2.3122342e-06
-3.8280651e-07
-2.2248605e-06
-3.7720138e-07
-2.1388258e-06
-3.7144277e-07
-2.0541606e-06
-3.655498e-07
-1.9709018e-06
-3.5951148e-07
-1.8890779e-06
-3.5333718e-07
-1.8087327e-06
-3.4698609e-07
-1.7298953e-06
-3.4049973e-07
-1.6526151e-06
-3.338203e-07
-1.5769215e-06
-3.2699701e-07
-1.5028765e-06
-3.1993058e-07
-1.4305115e-06
-3.1270684e-07
-1.3599078e-06
-3.0516691e-07
-1.2911018e-06
-2.9743286e-07
-1.2242053e-06
-2.892668e-07
-1.1592589e-06
-2.8087841e-07
-1.0964125e-06
-2.7191567e-07
-1.0357166e-06
-2.6264734e-07
-9.7738801e-07
-2.5255969e-07
-9.2148287e-07
-2.4210265e-07
-8.6830836e-07
-2.3047948e-07
-8.179272e-07
-2.1839983e-07
-7.7078165e-07
-2.0463662e-07
-7.2693641e-07
-1.9032118e-07
-6.8702127e-07
-1.7362489e-07
-6.5110395e-07
-1.5622998e-07
-6.2008134e-07
-1.3544393e-07
-5.9402815e-07
-1.1374201e-07
-5.7420576e-07
-8.729569e-08
-5.6073232e-07
-5.9470614e-08
-5.5534321e-07
-2.5163461e-08
-5.5834045e-07
1.1772148e-08
-5.7187925e-07
5.6477627e-08
-5.9570009e-07
1.0129248e-07
-6.3226426e-07
1.5432794e-07
-6.7971711e-07
2.0726049e-07
-7.0472371e-07
1.0949149e-07
-7.1598833e-07
5.3831908e-08
-7.1107383e-07
-1.7610668e-08
-6.9133261e-07
-8.1070449e-08
-6.5836662e-07
-1.3949445e-07
-6.1210124e-07
-1.9685467e-07
-5.5400227e-07
-2.4907902e-07
-4.8369645e-07
-3.0195198e-07
-4.0213703e-07
-3.5145962e-07
-3.0862231e-07
-4.0336916e-07
-2.0341793e-07
-4.5475108e-07
-8.5686673e-08
-5.0932519e-07
4.4833959e-08
-5.6560681e-07
1.8965696e-07
-6.2795875e-07
3.5156519e-07
-7.0319354e-07
5.3010314e-07
-7.7625579e-07
7.2361815e-07
-8.4213888e-07
9.313437e-07
-9.045577e-07
1.152463e-06
-9.6347798e-07
1.3863124e-06
-1.0194635e-06
1.6321337e-06
-1.0722233e-06
1.8888436e-06
-1.1202602e-06
2.1549663e-06
-1.1617068e-06
2.4283915e-06
-1.1940139e-06
2.7060044e-06
-1.2125265e-06
2.9816282e-06
-1.2039961e-06
3.244588e-06
-1.1461955e-06
3.4932104e-06
-1.080802e-06
3.7326417e-06
-1.03981e-06
3.9664058e-06
-1.0148776e-06
4.1974294e-06
-1.0028879e-06
4.4282633e-06
-1.0025679e-06
4.6616194e-06
-1.0139745e-06
4.9004078e-06
-1.0384181e-06
5.148382e-06
-1.0796351e-06
5.4096095e-06
-1.1385927e-06
5.6908201e-06
-1.2273038e-06
6.0022169e-06
-1.3612224e-06
6.365778e-06
-1.5918361e-06
6.8185731e-06
-1.9951465e-06
7.3619939e-06
-2.400237e-06
7.9880274e-06
-2.7653914e-06
8.7040206e-06
-3.16349e-06
9.5275245e-06
-3.6420421e-06
1.0479114e-05
-4.2153096e-06
1.1589463e-05
-4.928107e-06
1.2890995e-05
-5.7943975e-06
1.4427079e-05
-6.8643583e-06
1.6208938e-05
-7.9927119e-06
1.8236284e-05
-9.1268232e-06
2.0419804e-05
-9.8674091e-06
2.2507985e-05
-9.4270045e-06
2.3844891e-05
-5.8142486e-06
2.3757304e-05
1.093619e-06
2.2304519e-05
7.404916e-06
1.9929181e-05
1.1448551e-05
1.7005887e-05
1.3612042e-05
1.4131831e-05
1.3079682e-05
1.1445927e-05
1.1915252e-05
9.5706366e-06
8.1701764e-06
8.1345927e-06
6.0558291e-06
3.54125e-07