/*--------------------------------*- C++ -*----------------------------------*\
| =========                 |                                                 |
| \\      /  F ield         | OpenFOAM: The Open Source CFD Toolbox           |
|  \\    /   O peration     | Version:  2.4.0                                 |
|   \\  /    A nd           | Web:      www.OpenFOAM.org                      |
|    \\/     M anipulation  |                                                 |
\*---------------------------------------------------------------------------*/
FoamFile
{
    version     2.0;
    format      ascii;
    class       volVectorField;
    location    "0";
    object      wallShearStress;
}
// * * * * * * * * * * * * * * * * * * * * * * * * * * * * * * * * * * * * * //

dimensions      [0 2 -2 0 0 0 0];

internalField   uniform (0 0 0);

boundaryField
{
    inlet
    {
        type            cyclic;
    }
    outlet
    {
        type            cyclic;
    }
    top
    {
        type            calculated;
        value           nonuniform List<vector> 
200
(
(-0.00032443634 -0 -0)
(-0.00032445819 -0 -0)
(-0.00032435475 1.7807055e-22 0)
(-0.00032395128 1.7784914e-22 0)
(-0.00032308328 -1.7737291e-22 0)
(-0.00032161285 -0 -0)
(-0.00031945409 -5.2559341e-19 -3.2657648e-34)
(-0.00031662104 5.2093223e-19 1.2947249e-33)
(-0.00031325659 -0 -0)
(-0.00030954589 -0 0)
(-0.00030562946 -0 0)
(-0.00030160746 -4.9606502e-19 -3.0842494e-34)
(-0.00029755 9.7861976e-19 2.4569599e-37)
(-0.00029350609 -4.8274038e-19 3.0026409e-34)
(-0.00028951271 -1.589485e-22 -0)
(-0.00028559889 1.5679968e-22 0)
(-0.00028178901 -0 -0)
(-0.00027810157 4.5740401e-19 5.6875889e-34)
(-0.00027454133 -4.5154834e-19 2.8108458e-34)
(-0.00027110153 -0 -0)
(-0.00026777397 -2.9402515e-22 -0)
(-0.00026455089 2.9048581e-22 0)
(-0.00026142485 -0 0)
(-0.0002583889 -0 -0)
(-0.00025543628 -0 -0)
(-0.00025256059 2.7731924e-22 0)
(-0.00024975603 -0 0)
(-0.00024702053 -0 0)
(-0.00024435807 -0 -0)
(-0.00024177536 -0 -0)
(-0.00023927904 -2.6273464e-22 -0)
(-0.00023687619 -3.8985918e-19 -2.4121503e-34)
(-0.00023457459 3.8607113e-19 2.4028398e-34)
(-0.00023238262 2.5516095e-22 0)
(-0.0002303104 -0 -0)
(-0.0002283696 -2.5075349e-22 -0)
(-0.00022657099 -3.7264973e-19 -1.62261e-33)
(-0.00022492143 7.3987329e-19 2.760048e-33)
(-0.00022342515 -3.6723034e-19 2.2955628e-34)
(-0.00022208684 -2.4385275e-22 -0)
(-0.00022091162 -0 0)
(-0.00021990482 2.4145603e-22 0)
(-0.00021907189 3.6007515e-19 -2.2359185e-34)
(-0.00021841805 -3.5900048e-19 -4.4639905e-34)
(-0.00021794799 -4.786133e-22 -0)
(-0.0002176656 2.389965e-22 0)
(-0.00021756071 2.3888134e-22 0)
(-0.00021754966 -0 -0)
(-0.00021754966 -0 0)
(-0.00021754966 -2.3886922e-22 0)
(-0.00021754966 2.3886922e-22 0)
(-0.00021754966 -0 -0)
(-0.00021754966 -0 0)
(-0.00021754966 -0 0)
(-0.00021754966 -0 -0)
(-0.00021754966 -0 -0)
(-0.00021754966 -0 -0)
(-0.00021754966 -0 -0)
(-0.00021754966 -0 0)
(-0.00021754966 -0 0)
(-0.00021754966 -0 -0)
(-0.00021754966 -0 -0)
(-0.00021754966 -0 0)
(-0.00021754966 -0 -0)
(-0.00021754966 -2.3886922e-22 -0)
(-0.00021754966 -0 0)
(-0.00021754966 2.3886922e-22 0)
(-0.00021754966 -0 0)
(-0.00021754966 -0 -0)
(-0.00021754966 -2.3886922e-22 -0)
(-0.00021754966 2.3886922e-22 0)
(-0.00021754966 -0 0)
(-0.00021754966 -0 -0)
(-0.00021754966 -4.7773843e-22 -0)
(-0.00021754966 4.7773843e-22 0)
(-0.00021754966 -0 0)
(-0.00021754966 -0 0)
(-0.00021754966 -0 -0)
(-0.00021754966 -2.3886922e-22 -0)
(-0.00021754966 2.3886922e-22 0)
(-0.00021754966 -0 -0)
(-0.00021754965 -0 -0)
(-0.00021754966 -0 0)
(-0.00021754966 -0 -0)
(-0.00021754965 -0 -0)
(-0.00021754966 -0 -0)
(-0.00021754966 -2.3886922e-22 0)
(-0.00021754965 2.3886921e-22 0)
(-0.00021754966 -0 -0)
(-0.00021754966 -0 -0)
(-0.00021754966 -0 -0)
(-0.00021754966 -0 0)
(-0.00021754965 -0 -0)
(-0.00021754966 -0 -0)
(-0.00021754966 -2.3886922e-22 -0)
(-0.00021754965 2.3886921e-22 0)
(-0.00021754966 -0 -0)
(-0.00021754966 -0 -0)
(-0.00021754965 -0 -0)
(-0.00021754966 -0 0)
(-0.00021754966 -0 0)
(-0.00021754965 -0 0)
(-0.00021754966 -0 0)
(-0.00021754966 -0 0)
(-0.00021754965 -2.3886921e-22 0)
(-0.00021754966 2.3886922e-22 0)
(-0.00021754966 -0 0)
(-0.00021754965 -0 -0)
(-0.00021754966 -0 -0)
(-0.00021754966 -2.3886922e-22 0)
(-0.00021754966 -0 -0)
(-0.00021754966 -0 0)
(-0.00021754965 2.3886921e-22 0)
(-0.00021754966 -0 -0)
(-0.00021754966 -0 -0)
(-0.00021754965 -0 0)
(-0.00021754966 -0 0)
(-0.00021754966 -0 0)
(-0.00021754965 -0 0)
(-0.00021754966 -0 0)
(-0.00021754966 -2.3886922e-22 0)
(-0.00021754965 2.3886921e-22 0)
(-0.00021754966 -0 0)
(-0.00021754966 -0 0)
(-0.00021754965 -0 -0)
(-0.00021754966 -4.7773843e-22 0)
(-0.00021754966 4.7773843e-22 0)
(-0.00021754965 -2.3886921e-22 0)
(-0.00021754966 2.3886922e-22 0)
(-0.00021754966 -2.3886922e-22 0)
(-0.00021754965 2.3886921e-22 0)
(-0.00021754966 -0 0)
(-0.00021754966 -0 0)
(-0.00021754966 -0 -0)
(-0.00021754966 -2.3886922e-22 -0)
(-0.00021754966 -0 -0)
(-0.00021754966 -0 0)
(-0.00021754966 2.3886922e-22 0)
(-0.00021754966 -2.3886922e-22 0)
(-0.00021754966 2.3886922e-22 0)
(-0.00021754966 -0 -0)
(-0.00021754966 -2.3886922e-22 0)
(-0.00021754966 -2.3886922e-22 0)
(-0.00021754966 4.7773843e-22 0)
(-0.00021754966 -0 0)
(-0.00021754966 -0 0)
(-0.00021754966 -2.3886922e-22 0)
(-0.00021754966 2.3886922e-22 0)
(-0.00021754966 -0 -0)
(-0.00021754966 -0 0)
(-0.00021754966 -2.3886922e-22 -0)
(-0.00021754966 -0 0)
(-0.00021754966 -0 0)
(-0.0002175607 2.3888133e-22 0)
(-0.00021766559 -2.3899649e-22 0)
(-0.00021794803 -2.3930669e-22 -0)
(-0.00021841802 7.1872032e-19 -3.5995876e-40)
(-0.00021907182 -7.2063113e-19 -1.0681649e-40)
(-0.00021990492 -2.4145613e-22 -0)
(-0.00022091162 2.4256189e-22 0)
(-0.00022208668 -2.4385257e-22 -0)
(-0.00022342512 7.3495121e-19 7.5197834e-40)
(-0.00022492161 -1.4797478e-18 5.5139641e-33)
(-0.00022657127 7.4530038e-19 -2.7833478e-33)
(-0.00022836955 2.5075342e-22 0)
(-0.00023031009 2.5288475e-22 0)
(-0.00023238243 -2.5516074e-22 -0)
(-0.00023457454 -7.7162696e-19 -1.6211387e-41)
(-0.0002368763 7.7945862e-19 1.2763038e-39)
(-0.0002392793 -0 0)
(-0.00024177576 -0 0)
(-0.00024435861 -0 0)
(-0.00024702119 2.7123653e-22 0)
(-0.00024975682 -2.7424048e-22 0)
(-0.00025256132 -0 0)
(-0.00025543628 -0 -0)
(-0.00025838832 -0 0)
(-0.00026142437 -0 -0)
(-0.00026455049 -0 0)
(-0.00026777364 -0 0)
(-0.00027110127 -0 -0)
(-0.00027454114 9.0339752e-19 -1.443853e-39)
(-0.00027810144 -9.1480757e-19 1.7057535e-33)
(-0.00028178891 -9.2724683e-19 1.7294321e-33)
(-0.00028559882 9.3962682e-19 -1.7519298e-33)
(-0.00028951268 -0 0)
(-0.00029350614 9.6548092e-19 1.8010581e-33)
(-0.00029755015 -1.9575672e-18 4.4599012e-39)
(-0.0003016077 9.9196522e-19 2.1295779e-39)
(-0.00030562987 -0 -0)
(-0.00030954656 1.0185854e-18 -2.7094711e-40)
(-0.00031325713 -1.0304513e-18 3.8443758e-33)
(-0.0003166209 -1.0416902e-18 3.884955e-33)
(-0.00031945382 1.0510105e-18 1.0627949e-39)
(-0.00032161301 -0 0)
(-0.00032308342 -0 -0)
(-0.00032395125 -1.7784913e-22 -0)
(-0.00032435475 1.7807055e-22 0)
(-0.0003244582 -0 0)
(-0.00032443634 -0 0)
)
;
    }
    hills
    {
        type            calculated;
        value           nonuniform List<vector> 
200
(
(-0.0003244446 5.7011943e-07 2.0093668e-26)
(-0.00032445995 4.7220193e-08 4.4038277e-23)
(-0.00032459397 -2.9692081e-06 -2.7679723e-21)
(-0.00032573909 -8.4382049e-06 -3.9324953e-21)
(-0.00032955001 -1.616122e-05 -7.5512475e-21)
(-0.00033816984 -2.5692132e-05 -1.2060106e-20)
(-0.00035348511 -3.6159628e-05 -1.6795318e-20)
(-0.00037413099 -4.5718518e-05 -2.8626721e-23)
(-0.00039365122 -5.2503791e-05 -2.4119683e-20)
(-0.00040960415 -5.7013314e-05 -2.6050277e-20)
(-0.00042131742 -5.9864408e-05 5.0404533e-22)
(-0.00042875461 -6.1504449e-05 -8.1983607e-23)
(-0.00043244517 -6.2290339e-05 -5.6975807e-24)
(-0.00043270539 -6.2422909e-05 2.8477059e-22)
(-0.00042992373 -6.2048198e-05 1.1223717e-22)
(-0.00042430654 -6.1241587e-05 3.7388735e-22)
(-0.00041610835 -6.0054666e-05 -5.5875485e-20)
(-0.00040620191 -5.8606416e-05 -5.4808936e-20)
(-0.00039664416 -5.7194729e-05 -2.6290847e-20)
(-0.00038782325 -5.5881516e-05 -2.5908502e-20)
(-0.00037966506 -5.4659626e-05 1.1609845e-22)
(-0.00037213569 -5.3527748e-05 3.149581e-22)
(-0.00036520504 -5.248484e-05 6.3946061e-22)
(-0.00035880792 -5.1523315e-05 1.5752657e-22)
(-0.00035295399 -5.0647866e-05 4.2484542e-22)
(-0.00034756995 -4.9848246e-05 4.4296247e-22)
(-0.00034261496 -4.9119107e-05 -2.0403486e-22)
(-0.0003374506 -4.8347082e-05 -1.6417429e-22)
(-0.000331599 -4.74424e-05 -2.6148912e-22)
(-0.00032507537 -4.639786e-05 3.4635156e-22)
(-0.00031792853 -4.5207086e-05 5.2752467e-22)
(-0.00031020931 -4.385813e-05 -5.9376775e-23)
(-0.00030196949 -4.2331976e-05 4.799299e-24)
(-0.0002932629 -4.0600641e-05 9.6629368e-23)
(-0.00028413461 -3.8620843e-05 -2.2533662e-20)
(-0.0002747264 -3.6357383e-05 -2.0922624e-20)
(-0.00026545364 -3.3850791e-05 -1.7696855e-20)
(-0.00025678515 -3.1196524e-05 -1.6412626e-20)
(-0.00024878589 -2.8385167e-05 -1.1216056e-22)
(-0.0002415094 -2.5401645e-05 1.0743037e-22)
(-0.00023503655 -2.2242603e-05 6.8860734e-23)
(-0.00022944436 -1.8904722e-05 6.2348317e-24)
(-0.00022481442 -1.5389056e-05 2.6663348e-23)
(-0.00022123621 -1.1708909e-05 -2.3371725e-23)
(-0.00021879274 -7.884198e-06 2.2278222e-23)
(-0.00021755727 -3.9419802e-06 -4.2025049e-21)
(-0.00021749457 -4.6556287e-07 -4.9700118e-22)
(-0.00021755101 5.1138389e-23 0)
(-0.00021755101 -5.1138674e-23 0)
(-0.00021755101 2.7486871e-22 0)
(-0.00021755101 0 0)
(-0.00021755101 -1.6236447e-22 0)
(-0.00021755101 1.1122673e-22 0)
(-0.00021755101 0 0)
(-0.00021755101 -1.7259304e-22 0)
(-0.00021755101 0 0)
(-0.00021755101 1.9164582e-19 2.0398807e-34)
(-0.00021755101 -1.9147257e-19 -2.0430556e-34)
(-0.00021755101 1.9130504e-19 -1.0195384e-34)
(-0.00021755101 -1.9153077e-19 1.0210639e-34)
(-0.00021755101 1.9304733e-22 0)
(-0.00021755101 3.0683153e-23 0)
(-0.00021755101 0 0)
(-0.00021755101 -3.3495858e-22 0)
(-0.00021755101 3.8609485e-22 0)
(-0.00021755101 -1.9172893e-19 -1.8174739e-41)
(-0.00021755101 1.9172698e-19 -9.3078382e-42)
(-0.00021755101 -1.9152878e-19 -1.0197043e-34)
(-0.00021755101 1.9131082e-19 2.0414889e-34)
(-0.00021755101 -5.1137555e-24 0)
(-0.00021755101 0 0)
(-0.00021755101 2.2372955e-22 0)
(-0.00021755101 0 0)
(-0.00021755101 -2.748675e-22 0)
(-0.00021755101 0 0)
(-0.00021755101 5.1138438e-23 0)
(-0.00021755101 -2.5569323e-23 0)
(-0.00021755101 -2.5569196e-23 0)
(-0.00021755101 0 0)
(-0.00021755101 0 0)
(-0.00021755101 0 0)
(-0.00021755101 1.9173768e-19 1.0198843e-34)
(-0.00021755101 -1.9148714e-19 -1.0206795e-34)
(-0.00021755101 1.9151054e-19 -1.5293344e-41)
(-0.00021755101 -1.9171211e-19 -6.3411556e-42)
(-0.00021755101 1.7260044e-22 0)
(-0.00021755101 0 0)
(-0.00021755101 -1.7257851e-22 0)
(-0.00021755101 -2.748824e-22 0)
(-0.00021755101 2.2372143e-22 0)
(-0.00021755101 -1.9151215e-19 -1.7809437e-42)
(-0.00021755101 1.9156829e-19 1.021067e-34)
(-0.00021755101 -1.9149261e-19 -1.0212323e-34)
(-0.00021755101 1.9173587e-19 -9.9082509e-42)
(-0.00021755101 -2.2374062e-22 0)
(-0.00021755101 0 0)
(-0.00021755101 5.1139581e-24 0)
(-0.00021755101 2.1862669e-22 0)
(-0.00021755101 -2.7484617e-22 0)
(-0.00021755101 5.1140801e-23 0)
(-0.00021755101 -5.1140801e-23 0)
(-0.00021755101 5.1134234e-23 0)
(-0.00021755101 5.1139571e-24 0)
(-0.00021755101 -5.113958e-24 0)
(-0.00021755101 0 0)
(-0.00021755101 0 0)
(-0.00021755101 -2.5570405e-23 0)
(-0.00021755101 3.0680418e-23 0)
(-0.00021755101 -5.6254742e-23 0)
(-0.00021755101 0 0)
(-0.00021755101 0 0)
(-0.00021755101 5.1140974e-23 0)
(-0.00021755101 0 0)
(-0.00021755101 -5.1140384e-23 0)
(-0.00021755101 5.1140971e-23 0)
(-0.00021755101 0 0)
(-0.00021755101 0 0)
(-0.00021755101 -5.1140968e-23 0)
(-0.00021755101 0 0)
(-0.00021755101 0 0)
(-0.00021755101 2.5570482e-23 0)
(-0.00021755101 -2.5567239e-23 0)
(-0.00021755101 2.5570195e-23 0)
(-0.00021755101 2.5570481e-23 0)
(-0.00021755101 6.136113e-23 0)
(-0.00021755101 -8.693842e-23 0)
(-0.00021755101 2.5570479e-23 0)
(-0.00021755101 1.9303245e-22 0)
(-0.00021755101 -1.9305477e-22 0)
(-0.00021755101 -5.1140955e-23 0)
(-0.00021755101 5.6247807e-23 0)
(-0.00021755101 -5.1139571e-24 0)
(-0.00021755101 0 0)
(-0.00021755101 0 0)
(-0.00021755101 -5.1139497e-23 0)
(-0.00021755101 9.5807618e-20 -3.4134511e-35)
(-0.00021755101 -9.5807105e-20 3.4001136e-35)
(-0.00021755101 5.1139497e-23 0)
(-0.00021755101 -9.5751383e-20 1.6974275e-35)
(-0.00021755101 9.5699698e-20 -1.7064457e-35)
(-0.00021755101 5.1139498e-23 0)
(-0.00021755101 -5.113832e-23 0)
(-0.00021755101 5.113801e-23 0)
(-0.00021755101 -5.1139498e-23 0)
(-0.00021755101 5.1138329e-23 0)
(-0.00021755101 -5.1138001e-23 0)
(-0.00021755101 0 0)
(-0.00021755101 0 0)
(-0.00021755101 5.1137992e-23 0)
(-0.00021755101 2.2373497e-22 0)
(-0.00021755101 -2.7486828e-22 0)
(-0.00021755101 5.1137982e-23 0)
(-0.00021755101 -5.1140828e-23 0)
(-0.00021749463 4.6504558e-07 -2.9117195e-26)
(-0.00021755732 3.9425641e-06 1.0537997e-24)
(-0.00021879356 7.8862233e-06 3.0393048e-24)
(-0.00022123242 1.1703293e-05 9.3315179e-24)
(-0.00022481786 1.5392759e-05 -3.0800658e-23)
(-0.00022945051 1.8909536e-05 -3.0809523e-23)
(-0.00023502171 2.2233133e-05 3.5803194e-21)
(-0.00024151267 2.5403478e-05 8.7304047e-21)
(-0.0002487945 2.8389039e-05 5.0292352e-21)
(-0.00025680127 3.1202649e-05 1.6644567e-23)
(-0.0002654504 3.384961e-05 -6.6841679e-21)
(-0.0002746802 3.6343771e-05 -1.3908591e-20)
(-0.00028413964 3.8622253e-05 -7.5447261e-21)
(-0.00029327761 4.0604217e-05 -1.7825072e-22)
(-0.00030198229 4.2334826e-05 3.8577949e-23)
(-0.00031022355 4.3861078e-05 -2.1721061e-22)
(-0.00031794101 4.5209521e-05 -5.3858479e-22)
(-0.0003250912 4.6400818e-05 1.0486698e-22)
(-0.00033161765 4.7445776e-05 -4.1300194e-22)
(-0.00033746411 4.8349457e-05 -2.2275126e-20)
(-0.00034261721 4.9119447e-05 -2.2801086e-20)
(-0.00034755419 4.9845403e-05 6.9606911e-23)
(-0.00035281809 5.0624018e-05 2.0403292e-22)
(-0.00035882104 5.1525634e-05 -4.5977048e-22)
(-0.00036521865 5.2487197e-05 -2.4648799e-20)
(-0.00037214578 5.3529464e-05 -2.5066718e-20)
(-0.00037967078 5.4660581e-05 -2.7463053e-22)
(-0.00038783194 5.588292e-05 5.0894039e-22)
(-0.0003966488 5.719546e-05 -2.4047422e-22)
(-0.00040620683 5.8607167e-05 6.6911941e-22)
(-0.00041611192 6.0055194e-05 8.815483e-21)
(-0.00042430964 6.1242041e-05 1.9225523e-20)
(-0.00042992608 6.2048547e-05 1.9290475e-20)
(-0.00043271894 6.2424979e-05 9.0044048e-21)
(-0.00043245108 6.2291289e-05 2.7409043e-22)
(-0.00042876472 6.1506198e-05 -9.7161708e-21)
(-0.00042134142 5.986902e-05 -1.8330907e-20)
(-0.00040962853 5.7018652e-05 -1.8264521e-20)
(-0.00039361365 5.249346e-05 -7.8551135e-21)
(-0.00037409113 4.5704612e-05 -2.1287163e-20)
(-0.00035350363 3.6169008e-05 -1.7012137e-20)
(-0.00033817731 2.5697678e-05 2.2339276e-23)
(-0.0003295453 1.6155084e-05 1.9744185e-23)
(-0.00032573933 8.4388817e-06 -9.5655236e-24)
(-0.00032459404 2.9696845e-06 1.0723546e-24)
(-0.00032445996 -4.7449925e-08 4.4249871e-23)
(-0.0003244446 -5.701408e-07 5.316852e-22)
)
;
    }
    front
    {
        type            empty;
    }
    back
    {
        type            empty;
    }
}


// ************************************************************************* //
