/*--------------------------------*- C++ -*----------------------------------*\
| =========                 |                                                 |
| \\      /  F ield         | OpenFOAM: The Open Source CFD Toolbox           |
|  \\    /   O peration     | Version:  2.4.0                                 |
|   \\  /    A nd           | Web:      www.OpenFOAM.org                      |
|    \\/     M anipulation  |                                                 |
\*---------------------------------------------------------------------------*/
FoamFile
{
    version     2.0;
    format      ascii;
    class       volScalarField;
    location    "0";
    object      I05;
}
// * * * * * * * * * * * * * * * * * * * * * * * * * * * * * * * * * * * * * //

dimensions      [0 0 0 0 0 0 0];

internalField   nonuniform List<scalar> 
32000
(
-0.0011543086
-0.0011544006
-0.0011518897
-0.0011342525
-0.0010820871
-0.00097990547
-0.00083306331
-0.00068124562
-0.00056783139
-0.00048893133
-0.00043456068
-0.00039734024
-0.00037182178
-0.00035519983
-0.00034565592
-0.00034249307
-0.00034543467
-0.00035318097
-0.00036136755
-0.00036893569
-0.00037587437
-0.00038208631
-0.00038747356
-0.00039206046
-0.00039566022
-0.00039836054
-0.00040017448
-0.00040321885
-0.00040933308
-0.00041886243
-0.00043216204
-0.00044972701
-0.00047223436
-0.00050059483
-0.00053609931
-0.00057987206
-0.00063115737
-0.00068753517
-0.00074861063
-0.00081367321
-0.00088113499
-0.00094866955
-0.001013052
-0.0010701393
-0.0011153958
-0.0011445457
-0.0011542637
-0.0011544012
-0.0011544012
-0.0011544012
-0.0011544012
-0.0011544012
-0.0011544012
-0.0011544012
-0.0011544012
-0.0011544012
-0.0011544012
-0.0011544012
-0.0011544012
-0.0011544012
-0.0011544012
-0.0011544012
-0.0011544012
-0.0011544012
-0.0011544012
-0.0011544012
-0.0011544012
-0.0011544012
-0.0011544012
-0.0011544012
-0.0011544012
-0.0011544012
-0.0011544012
-0.0011544012
-0.0011544012
-0.0011544012
-0.0011544012
-0.0011544012
-0.0011544012
-0.0011544012
-0.0011544012
-0.0011544012
-0.0011544012
-0.0011544012
-0.0011544012
-0.0011544012
-0.0011544012
-0.0011544012
-0.0011544012
-0.0011544012
-0.0011544012
-0.0011544012
-0.0011544012
-0.0011544012
-0.0011544012
-0.0011544012
-0.0011544012
-0.0011544012
-0.0011544012
-0.0011544012
-0.0011544012
-0.0011544012
-0.0011544012
-0.0011544012
-0.0011544012
-0.0011544012
-0.0011544012
-0.0011544012
-0.0011544012
-0.0011544012
-0.0011544012
-0.0011544012
-0.0011544012
-0.0011544012
-0.0011544012
-0.0011544012
-0.0011544012
-0.0011544012
-0.0011544012
-0.0011544012
-0.0011544012
-0.0011544012
-0.0011544012
-0.0011544012
-0.0011544012
-0.0011544012
-0.0011544012
-0.0011544012
-0.0011544012
-0.0011544012
-0.0011544012
-0.0011544012
-0.0011544012
-0.0011544012
-0.0011544012
-0.0011544012
-0.0011544012
-0.0011544012
-0.0011544012
-0.0011544012
-0.0011544012
-0.0011544012
-0.0011544012
-0.0011544012
-0.0011544012
-0.0011544012
-0.0011544012
-0.0011544012
-0.0011544012
-0.0011544012
-0.0011544012
-0.0011544012
-0.0011544012
-0.001154264
-0.0011445427
-0.001115376
-0.0010702175
-0.0010129878
-0.00094857412
-0.00088133978
-0.00081363096
-0.00074852028
-0.00068739245
-0.00063118624
-0.00058018359
-0.00053606567
-0.00050051507
-0.00047217292
-0.00044966583
-0.00043211362
-0.0004188055
-0.00040927024
-0.00040317744
-0.00040017276
-0.00039841763
-0.00039609544
-0.00039201491
-0.00038742899
-0.00038205434
-0.00037585633
-0.00036891108
-0.00036135465
-0.00035316834
-0.00034542597
-0.00034248583
-0.00034565047
-0.00035517022
-0.00037180876
-0.00039731611
-0.00043449555
-0.00048885508
-0.00056799133
-0.00068146083
-0.00083292365
-0.00097983698
-0.00108214
-0.0011342493
-0.0011518889
-0.0011544006
-0.0011543086
-7.1196138e-91
-1.5645451e-57
-2.1681988e-56
-6.51634e-57
-5.6943404e-58
-7.8306392e-59
-8.5153142e-59
0
-4.373626e-58
-1.7363014e-58
-1.510025e-60
-1.8922639e-58
-1.5874611e-60
-4.2606312e-57
-4.470631e-57
-3.743064e-73
-7.1243098e-58
-7.8377517e-58
-5.1413314e-59
-9.3918592e-59
-4.291603e-63
-8.7272616e-61
-1.3656849e-65
-4.1693911e-60
-7.5893886e-73
-6.7534916e-61
-2.1609155e-59
-2.5556367e-72
-5.7030852e-61
-2.4093817e-63
-2.2318562e-63
-9.5638544e-61
-2.2473506e-60
-7.9418295e-61
-7.9004219e-59
-4.7055232e-59
-3.3049264e-59
-2.1221142e-57
-5.1914462e-58
-5.5219398e-58
-8.3194906e-58
-3.8375494e-60
-5.0189337e-58
-5.0679643e-58
-1.2061092e-65
-4.4706037e-58
-7.6106234e-58
-4.2480724e-59
-6.8686367e-76
-2.6562441e-60
-1.4711841e-95
-1.3877395e-58
-4.7766057e-59
-2.6551776e-60
-2.655073e-60
-2.6552267e-60
-5.1855299e-58
-5.1539641e-58
-2.7887217e-59
-2.7709893e-59
-4.4264029e-58
-2.6574121e-60
-4.0874037e-76
0
-2.6565334e-60
-2.6552616e-60
-2.1505523e-58
-4.7724241e-59
-1.735923e-56
-7.1302451e-57
-2.6552262e-60
-4.2480045e-59
-2.6551237e-60
-2.7431203e-96
-2.6568256e-60
-2.6557227e-60
-4.7698913e-59
-2.7762138e-59
-1.5454564e-75
-1.6350293e-75
-2.6553711e-60
-4.7681205e-59
-4.7592174e-59
-4.2487112e-59
-2.4059764e-57
-2.2539939e-57
-2.6554441e-60
-4.2467473e-59
-4.4435905e-58
-4.4512575e-58
0
-1.3931558e-58
-2.7884527e-59
0
-2.6556414e-60
0
-2.7903721e-59
-4.7758426e-59
-2.6548497e-60
-4.2488739e-59
-2.9460015e-87
0
-2.7890857e-59
-2.6572854e-60
-2.7786518e-59
-2.6556415e-60
-2.7782919e-59
-2.6541353e-60
-2.7909981e-59
-1.7174469e-76
-1.0217027e-76
-1.2653151e-77
-2.6541794e-60
0
-1.7174677e-76
-2.6543918e-60
-2.6556191e-60
-2.6584091e-60
-2.6557087e-60
-4.088084e-76
-4.7580332e-59
-4.7701204e-59
-2.7769034e-59
-4.7703408e-59
-2.6549005e-60
-4.75659e-59
-2.785275e-59
-4.4456711e-58
-4.4651211e-58
-2.6555251e-60
-2.4132335e-57
-2.2522375e-57
-2.6549723e-60
0
-2.6553728e-60
-2.7832042e-59
-2.7981143e-59
0
-2.6549761e-60
-2.6551277e-60
-4.2484407e-59
-2.6556981e-60
-2.743079e-96
-4.4623973e-58
-5.1449685e-58
-4.2481466e-59
-2.6552225e-60
-4.7765835e-59
-1.3876845e-58
-5.5400017e-96
-2.6550211e-60
-2.655628e-60
-5.1807562e-58
-5.1339288e-58
-2.6470684e-60
-2.6750409e-60
-2.7904698e-60
-2.9022388e-60
-1.9678433e-67
-4.0824542e-60
-6.0223034e-58
-5.465006e-58
-4.353601e-60
-5.7223198e-60
-6.553431e-61
-4.6811272e-58
-5.0656649e-58
-4.1621622e-61
0
-9.9907423e-60
-1.1204809e-60
-1.0309238e-62
-3.4848952e-59
-2.7911922e-59
-1.4343274e-60
0
-1.2195815e-59
-4.6275458e-59
-2.8241766e-59
-1.9834565e-60
-1.0154402e-60
-2.9193131e-73
-2.45598e-59
-1.3220319e-60
-6.4543981e-63
-3.061242e-59
-8.4808689e-60
-1.5745963e-60
-3.2992108e-60
-1.5103995e-60
-1.4655739e-60
-1.2896407e-60
-1.6320168e-58
-1.983662e-58
-2.5800475e-57
-1.2966342e-57
-1.3247985e-59
-1.3163792e-59
-1.5648156e-57
-1.5642126e-57
0
-7.7796793e-73
-1.2388548e-57
-1.021773e-57
-1.0762484e-59
-6.7400766e-59
-5.7452404e-59
-1.3321976e-58
-9.3609869e-59
-5.6050679e-59
-8.5623933e-59
-2.5343628e-59
-2.632015e-60
-3.5087877e-57
-5.3606432e-63
-6.9291023e-58
-4.4172694e-59
-2.0080205e-60
-8.7974143e-61
-1.2864219e-59
-1.1927231e-59
-1.4589251e-60
-3.5266303e-60
0
-2.590703e-63
-2.2667361e-72
-2.5170996e-59
-5.3985694e-59
-9.4565402e-61
-8.8712395e-61
0
-3.56601e-61
-1.7797364e-60
-6.1019706e-60
-2.4615473e-59
-4.1031689e-66
-3.7516997e-72
-4.2437514e-58
-4.0027416e-58
-4.3139005e-58
-4.2559462e-58
-4.2356784e-59
-1.1058582e-58
-5.9408472e-58
-4.0521578e-58
-5.951568e-58
-3.3618576e-59
-1.1369323e-76
-2.2074742e-59
-1.9095694e-57
-3.5366919e-58
-2.2103142e-59
-3.5208067e-58
-2.2253461e-59
-2.1033623e-60
-3.5100136e-58
-2.2416842e-59
-2.1941253e-59
-2.1041814e-60
-1.7811249e-57
-5.6256365e-57
-1.093023e-58
-2.1029968e-60
-3.744804e-59
-2.1928162e-59
-2.1048366e-60
-3.3647555e-59
-2.1029704e-60
-1.9125398e-57
-1.7788045e-57
-3.5140135e-58
-2.1052976e-60
-5.636059e-57
-4.095975e-58
-2.2120166e-59
-2.2210853e-59
-7.4656649e-78
-4.0812008e-58
-3.5293376e-58
-2.1036002e-60
-3.7486317e-59
-1.0982192e-58
-2.1036605e-60
-2.0723753e-76
-1.7854897e-57
-1.7811335e-57
-2.1055741e-60
-3.3639404e-59
-3.7618469e-59
-2.1813477e-59
-4.0849608e-58
-6.0400511e-58
0
-8.5022076e-78
-2.10339e-60
-4.9824424e-78
-3.7921811e-59
-2.2173944e-59
-2.104562e-60
-2.103931e-60
-2.1039309e-60
0
-3.7935972e-59
-2.2419424e-69
-3.7734171e-59
-2.1034131e-60
-8.5022071e-78
-4.2421467e-77
-2.1042272e-60
-7.4726459e-87
-3.7948064e-59
-1.1040684e-58
-2.1023202e-60
-3.7961673e-59
-4.1139069e-58
-2.2145885e-59
-3.5275817e-58
-3.5176077e-58
-2.1040986e-60
-7.4666817e-78
-2.1033873e-60
-6.0448528e-58
-3.5167163e-58
-2.1062351e-60
-3.7979789e-59
-1.103505e-58
-4.0961861e-58
-5.8557292e-57
-4.0798304e-58
-2.104255e-60
-1.7858114e-57
-1.7888375e-57
-2.1761367e-75
-8.7043728e-75
-1.6963212e-75
-2.10352e-60
-7.3728852e-96
-2.1037165e-60
-2.2239042e-59
-2.2094918e-59
-3.3656866e-59
-1.1551324e-75
-6.0521984e-58
-3.4851797e-58
-4.0400996e-68
0
-3.1900756e-76
-1.0990532e-58
-2.2102206e-59
-1.1233593e-95
-2.1029569e-60
-2.1029283e-60
-3.5073647e-58
-4.1003498e-58
-3.5085476e-58
-5.9154705e-58
-3.5360825e-59
-2.2598339e-60
-2.5447331e-60
-4.5138712e-65
-4.0368021e-58
-4.2185345e-58
-3.4480891e-60
-4.523771e-60
-5.1589695e-61
-3.6707373e-58
-6.1488156e-58
-1.4933749e-63
-7.5293489e-61
-8.1696799e-61
-1.4132814e-59
-9.4590748e-61
-1.6129932e-59
0
-2.9257054e-60
-1.2028885e-60
-1.2340039e-59
-1.3205337e-59
-6.9681559e-61
-1.5705892e-60
-3.4080606e-72
-7.9362182e-85
-2.0202371e-60
-2.7504772e-73
-6.5795997e-58
-7.8767406e-58
0
-1.7302711e-89
-5.1221376e-75
-2.5249419e-60
-5.1318556e-63
-2.2677566e-88
-1.5478908e-59
-3.2711087e-75
-2.0552386e-57
-1.233608e-57
-1.0539287e-59
-1.0415372e-59
-8.4267056e-58
-1.0406626e-59
-8.2397751e-60
-8.2419946e-60
0
-1.3311388e-58
-9.6884851e-58
-9.8216706e-59
-1.7865193e-64
-7.3881611e-58
-6.872361e-59
-4.0245537e-59
-2.2830806e-58
-4.0555279e-75
-1.6562032e-65
-4.4390674e-63
-2.6771678e-57
-5.1918468e-58
-2.7838808e-59
-1.5899603e-60
-1.4674283e-60
-1.303949e-59
-5.3575361e-85
-1.848381e-59
-1.7241609e-59
-2.6143784e-60
-9.4811562e-61
-1.7949454e-72
-1.6407272e-59
-1.3912573e-59
-1.5034758e-72
-5.2922268e-60
-3.0641965e-61
-5.9616709e-61
-5.2924815e-60
-3.9583379e-66
-2.1598189e-61
-2.8182311e-84
0
-2.729947e-60
-3.1505404e-58
-2.605519e-58
-1.4465101e-64
-3.3073202e-59
-2.8407182e-58
-9.0813111e-59
-2.7631331e-58
-3.1843162e-58
-1.6644846e-60
-1.6657216e-60
-1.7635349e-59
-1.5164631e-57
-3.2249567e-58
-2.6656828e-59
-3.0132257e-59
-2.9944832e-59
-1.7249919e-59
-1.5132885e-57
-2.6660512e-59
-3.2171799e-58
-1.6657491e-60
-3.2377477e-58
-1.7270767e-59
-1.749992e-59
-4.1030434e-77
-2.9796678e-59
-1.7264585e-59
-1.2823013e-96
0
-1.6657268e-60
-1.6657497e-60
0
-2.7969661e-58
-1.6657699e-60
-4.6377986e-57
-2.7834776e-58
-3.0088096e-59
-1.7282893e-59
-4.7884189e-58
-3.2434517e-58
-3.2322759e-58
-1.6657737e-60
-2.9771593e-59
-2.968956e-59
-1.6661003e-60
-7.8050135e-76
-1.6407347e-76
0
-4.1037315e-77
-1.6652367e-60
-3.0063986e-59
-1.7539931e-59
-3.240283e-58
-3.2356094e-58
-1.6664731e-60
-6.412284e-79
-1.6668081e-60
-1.6659543e-60
-1.7561907e-59
-3.0033308e-59
-6.4089994e-79
-1.6663006e-60
-8.8939946e-86
-1.6665891e-60
-1.7552818e-59
-3.0045208e-59
-1.6652238e-60
-1.6660773e-60
0
-3.668834e-76
-7.7067082e-77
-1.6660806e-60
-8.7450743e-59
-3.0068739e-59
-3.2549911e-58
-1.7536014e-59
-2.8089459e-58
-3.0066337e-59
-3.2333539e-58
-4.6447041e-57
-2.7853471e-58
-2.6655708e-59
0
-3.2320095e-58
-2.7952305e-58
-3.2437775e-58
-2.967467e-59
-2.5000372e-58
-4.773047e-58
-4.6377901e-57
-3.2450921e-58
-1.5152688e-84
-1.7509542e-59
-1.760504e-59
-1.5149536e-84
-1.6656758e-60
-1.6671587e-60
-1.6658095e-60
-1.6656746e-60
-1.6658907e-60
-1.7498347e-59
-8.7603027e-59
-1.6658907e-60
-1.6657351e-60
-3.226576e-58
-3.878323e-68
-3.2492565e-58
-1.665887e-60
-1.6691394e-60
-1.6718722e-60
-1.6756146e-60
-1.6691394e-60
0
-1.7236387e-75
-1.6664911e-60
-1.6654732e-60
-3.1712e-58
-4.6866548e-58
-2.7649211e-59
-8.0676138e-66
-2.0145907e-60
-5.3072773e-73
-3.8439323e-65
-5.1235458e-58
-2.6287496e-58
-1.75604e-61
-3.2477894e-66
-4.5223451e-61
-2.3600128e-61
-4.1424308e-60
-4.1099904e-84
-1.2989106e-72
-1.1474615e-57
-1.3079963e-57
-3.8124684e-61
-8.4550625e-61
-8.6734769e-60
-4.6329832e-61
-9.7893603e-60
-5.4098039e-73
-8.7743477e-60
-3.2228575e-60
-6.3667705e-61
-6.9093555e-61
-1.5996333e-60
-8.2209602e-61
-6.2476877e-58
-5.7915893e-58
-6.4365345e-74
-2.0841218e-60
-2.1187938e-60
-5.1813037e-60
-4.0638303e-63
-1.7958958e-88
-2.0443834e-64
-1.0019695e-59
-6.429724e-64
-8.6700039e-60
-5.7932287e-67
-8.2520699e-60
-8.2407747e-60
-5.2047558e-79
-1.1067912e-70
-1.0445998e-58
-6.5356051e-60
-1.0578094e-58
-7.6805244e-58
-6.2226025e-58
-8.5010713e-59
-3.6292994e-59
-1.3123965e-59
-1.4869191e-60
-1.5827963e-60
-3.5437738e-63
-1.6601016e-60
-1.6341994e-60
-1.9653961e-73
-1.1767234e-65
-2.4473797e-59
-7.9843647e-59
-2.4989737e-63
-5.0409932e-61
-9.8470082e-61
-4.333045e-61
-1.8462856e-63
-6.8949426e-63
-3.5562567e-61
-2.7162138e-59
-6.5633499e-59
-1.8824496e-58
0
-4.3943654e-66
-2.9585782e-59
-2.7209707e-58
-2.6689015e-59
-7.5770985e-59
-8.569896e-60
-3.2379942e-61
-2.9302251e-61
-2.0857355e-59
-8.7425622e-60
-2.4747356e-58
-2.7170845e-58
-1.2590728e-57
-2.6466557e-58
-2.0440139e-58
-1.3351007e-60
-1.3165318e-60
-1.3190205e-60
-1.3653149e-75
-1.3196416e-60
-2.1111265e-59
-2.9251313e-76
-1.3208333e-60
-1.3194695e-60
-1.3197407e-60
-1.3772774e-59
-2.3470146e-59
-2.3615365e-59
-2.3474637e-59
-1.3194342e-60
-1.3957205e-59
-1.3854807e-59
0
-2.398295e-59
-1.4142568e-59
0
-7.9214958e-96
-1.3194355e-60
0
-1.3194184e-60
0
-2.3496647e-59
-2.3589819e-59
-1.3204854e-60
-1.3197348e-60
-1.3198131e-60
-2.5695916e-58
-2.5591798e-58
-1.3193964e-60
0
-3.4133941e-76
-1.3195842e-60
-1.3190269e-60
-1.3206861e-60
-1.3196361e-60
-4.403224e-97
-1.3197633e-60
-1.3700626e-59
-6.8881508e-59
-5.0041973e-77
-1.3191916e-60
-2.1115774e-59
-1.3200011e-60
-8.5304489e-77
-1.3210778e-60
-1.3210756e-60
-6.8836135e-59
-1.3720807e-59
-1.3196442e-60
-1.5930411e-79
-3.173651e-80
-1.3202577e-60
-3.8132862e-78
-6.3754321e-79
0
-1.3722777e-59
-2.3534962e-59
-1.3725299e-59
-3.7666077e-58
-1.3704942e-59
-2.1114341e-59
0
-2.5780785e-58
-2.2272575e-58
-1.3199598e-60
-2.1118693e-59
-1.3190268e-60
0
-2.5606682e-58
-2.2133848e-58
-2.3575901e-59
-2.3511447e-59
-1.3193508e-60
-1.3196023e-60
-2.2048148e-58
-2.2145429e-58
-1.3751595e-59
-2.3505605e-59
-1.3200169e-60
-2.3591799e-59
-2.3497587e-59
0
-1.4136072e-59
-1.4053848e-59
-2.3378441e-75
-1.3195444e-60
-1.4143393e-59
-1.4050446e-59
-1.3196815e-60
-2.1111642e-59
-2.111116e-59
-1.3205345e-60
-1.3194231e-60
-1.319715e-60
0
0
-1.32038e-60
-1.2000878e-84
-3.4132737e-76
-1.3219477e-60
-3.2502814e-77
-1.3200047e-60
-1.2999587e-76
-1.3196476e-60
-2.3590857e-59
-2.3568777e-59
-3.7471146e-67
-1.3628634e-60
-1.4423889e-60
-1.9074072e-60
-1.6970215e-60
-1.2150595e-64
-2.5093964e-58
-2.1486541e-58
-2.8375271e-60
-2.3687079e-59
-2.5535313e-59
-4.5330561e-59
-2.6597229e-59
-4.7217445e-61
-5.1231438e-61
-9.8150967e-58
-1.0983304e-57
-6.1666001e-60
-5.3213991e-66
-5.3652593e-60
-1.6222984e-63
-1.0366686e-58
-4.0425983e-61
-7.2708475e-66
-2.1308005e-63
-1.0707067e-60
-5.4708531e-61
-2.0143485e-59
-1.0414713e-59
-1.1245378e-59
-1.3518693e-62
-1.2910557e-65
-7.88086e-61
-4.3062675e-60
0
-7.1027773e-61
-6.4050518e-61
-1.6190767e-64
-5.1981285e-67
-7.655541e-60
0
-1.0579294e-58
-1.650879e-78
-6.5277467e-60
-3.5384717e-91
-1.000696e-57
-1.0007022e-57
-6.1580969e-58
-6.126564e-58
-1.383411e-75
-3.0843961e-59
-6.9003916e-59
-7.6927845e-60
-4.5239485e-58
-4.2410502e-58
-3.8615965e-59
-3.5396753e-59
-1.2675877e-59
-6.1421938e-61
-9.4178989e-60
-1.1794391e-60
-2.7820752e-58
-2.8059314e-58
-2.3583611e-60
-2.183675e-60
-7.8441025e-61
-5.7562519e-66
-6.7565551e-61
-4.3331022e-58
-4.4678893e-58
-2.150819e-59
-5.5941302e-59
-6.0017857e-59
-9.4275263e-73
-2.5043243e-59
-1.7466211e-58
-2.1816391e-58
-2.4757221e-59
-4.7280664e-59
-7.354163e-60
-2.5643839e-61
0
-3.1577081e-59
-1.5676127e-59
-3.8592406e-64
-1.8123516e-58
-9.7974104e-58
-1.1192552e-59
-1.0987879e-60
-1.2394325e-66
-2.6614233e-70
0
-1.0462159e-60
-1.0467149e-60
-1.6721902e-59
0
-1.0452218e-60
-1.04514e-60
-1.0453548e-60
0
-1.0451149e-60
-2.5743417e-77
-9.5050037e-85
-9.3793591e-58
-1.1431694e-57
-1.0456267e-60
-5.444986e-59
-1.7685955e-58
-1.1125755e-59
-1.0451136e-60
-1.8600982e-59
-1.0898338e-59
-1.0829402e-59
-2.1952101e-69
-1.8690714e-59
-1.8689517e-59
-1.8610268e-59
-2.7037681e-76
-1.0835328e-59
-1.7381393e-58
-5.4599999e-59
-2.5743473e-77
-1.1462216e-57
-9.5188492e-58
-1.0842046e-59
-2.0181001e-58
-1.8673821e-59
-1.8624385e-59
-1.0880392e-59
-1.0447895e-60
-1.6725114e-59
-1.8672516e-59
-1.0858033e-59
-1.0468041e-60
-1.672066e-59
-1.0453071e-60
-1.0453045e-60
-1.6717827e-59
-2.8940417e-77
-1.8641634e-59
-2.1230515e-78
-2.0174687e-58
-1.8651115e-59
-1.864333e-59
-1.8648497e-59
-1.0452928e-60
0
-5.455092e-59
-1.8642839e-59
-1.8639271e-59
-1.8656435e-59
-1.864345e-59
-1.7380889e-58
-1.8661419e-59
-5.4574434e-59
-1.8693744e-59
-1.7361736e-58
0
-1.867385e-59
-1.0850801e-59
-1.0447625e-60
-1.0880392e-59
-9.5046681e-58
-1.7589251e-58
-1.8620696e-59
-1.8678071e-59
-1.0453047e-60
-5.4601995e-59
-1.0453006e-60
-2.0180333e-58
-1.0452521e-60
-5.4608964e-59
-1.0450463e-60
-1.8609422e-59
-1.8688648e-59
-3.9617813e-77
-5.410713e-59
-5.3649262e-59
-1.0455387e-60
-1.8696491e-59
-1.8309936e-59
-1.0478501e-60
-1.0454559e-60
-1.0453591e-60
-2.025276e-58
-2.0107772e-58
-1.0462103e-60
0
-1.8707389e-59
-1.7380923e-58
-1.0815154e-59
-1.8712469e-59
-1.0814119e-59
-5.1699882e-76
-1.0915867e-59
-1.081207e-59
-1.0471022e-60
-1.0457666e-60
-2.015564e-58
-1.7279104e-58
-1.0635037e-59
-1.823145e-59
-7.436321e-74
-1.2645212e-60
-2.2431959e-65
-1.1395651e-59
-1.099676e-59
-1.6010063e-60
-2.3240712e-61
-1.9880969e-59
-1.8673378e-58
-1.9422728e-58
-1.2579392e-60
-1.0605728e-58
-3.5181535e-58
-7.8724959e-60
-8.2470282e-60
-8.0211375e-60
-5.1435458e-60
-5.6394765e-61
-4.1239168e-58
-7.0121506e-58
-3.2273204e-61
-5.4901636e-60
-7.7973498e-61
-2.2155179e-60
-4.3673293e-61
-9.9682389e-61
-5.1537615e-61
-5.5533876e-61
-1.9871589e-59
-6.8025446e-58
-3.4782166e-58
-9.9099343e-60
-5.7412792e-59
-3.2223643e-59
-1.077282e-60
-7.6889224e-60
0
-3.7139672e-67
-5.4387262e-60
-5.2146925e-60
-5.0784613e-58
-5.0810551e-58
-8.272381e-59
-4.0234276e-58
-7.927617e-58
-4.0220461e-58
-4.8779615e-58
-4.9657876e-59
-3.8996908e-58
-5.315242e-59
-2.1752398e-59
-3.4111604e-59
-3.9258007e-58
-2.1344173e-59
-2.5469548e-59
-4.940339e-61
-1.0430073e-60
-4.2358835e-59
-2.3937864e-60
-2.0337798e-59
-1.7567595e-59
-1.8913557e-59
-1.7668932e-59
-1.5998738e-60
-1.2408778e-63
-5.1904687e-60
-3.6439773e-58
-3.3343225e-58
0
-4.1985285e-61
-8.5757068e-64
-6.5283428e-60
-1.3477235e-69
-9.8256639e-60
-1.6306324e-59
-9.5789469e-60
-2.4737697e-61
-2.2462826e-61
-2.2398422e-83
-9.7130251e-60
-1.7409525e-59
-1.5452665e-58
-1.5974257e-58
-1.0651227e-60
-1.4543316e-58
-1.663542e-58
-1.3745461e-59
-8.1144883e-60
-1.4139059e-59
-8.2706488e-61
-4.3094614e-59
-1.483314e-59
-1.3245813e-59
-8.5608642e-60
-1.4825928e-59
0
-1.4715773e-59
-8.6445515e-60
-8.2785225e-61
-4.0953249e-76
-1.471991e-59
-2.5675257e-57
-8.9901116e-58
-8.2791421e-61
-8.6380402e-60
-8.5712633e-60
-1.5928082e-58
-1.6038441e-58
-1.4809535e-59
-8.57406e-60
-1.4806643e-59
-8.2788201e-61
-1.6142113e-58
-8.8705462e-60
-8.2779633e-61
0
-8.6271124e-60
-1.3766126e-58
-7.4395308e-58
-1.3799176e-58
-9.1140947e-58
-9.0779868e-58
-1.5983637e-58
-7.4625529e-58
-1.4746432e-59
-1.3816799e-58
-6.9926208e-70
-8.2755182e-61
0
-8.2857623e-61
0
-8.2861434e-61
-1.5967959e-58
-1.4804686e-59
-8.6121407e-60
-8.2753628e-61
-8.279827e-61
-1.4776413e-59
-4.3183339e-59
-1.5984241e-58
-1.5984048e-58
-8.6078751e-60
-8.6033151e-60
-4.5676886e-88
-8.2753627e-61
-1.4767633e-59
-1.477459e-59
0
-8.2798138e-61
0
0
-8.2795966e-61
-4.3184096e-59
-1.473285e-59
-1.378242e-58
-8.2755172e-61
-1.4754783e-59
-4.3234767e-59
-8.276373e-61
-4.3170195e-59
-6.6803711e-57
-1.6159082e-58
-9.0177843e-58
-8.586466e-60
-8.2844993e-61
-1.4748471e-59
-1.3248466e-59
-1.3765975e-58
-1.6023801e-58
-8.5807352e-60
-1.3241733e-59
-8.2815882e-61
-8.283552e-61
-1.3240836e-59
-2.2888011e-57
-2.3570398e-58
-1.5934198e-58
-4.3133756e-59
-1.598358e-58
-1.166131e-76
-1.4726472e-59
0
-1.5923468e-58
-3.049007e-57
-6.9590697e-58
-1.47209e-59
-8.5652625e-60
-1.3765836e-58
-8.6439125e-60
-1.4716995e-59
-4.3294177e-59
-1.4825755e-59
-8.2817565e-61
-1.6060989e-58
-1.4709875e-59
0
-8.5509627e-60
-8.5655423e-60
-8.4920863e-60
-1.4766589e-59
-1.4230656e-59
-1.4977432e-59
-1.7067712e-59
-1.0836994e-60
-1.6377319e-59
0
-9.1329797e-68
-2.0295241e-61
-1.5958275e-58
-1.6327973e-58
-8.6133317e-60
-2.4784289e-58
-1.0438137e-57
-4.4161588e-61
-6.3799115e-61
-1.0222153e-60
-3.0718288e-59
-2.5008307e-59
-3.5066702e-58
-4.2235424e-58
-8.5614449e-60
-2.7169743e-61
-3.098908e-73
-3.3490834e-73
-3.1607717e-59
-3.2255792e-59
-3.7111908e-85
-9.2583088e-59
-4.2131421e-59
-2.7461086e-58
-2.9034083e-58
-1.0300283e-94
-2.345522e-59
-3.9235292e-58
-3.4128098e-59
0
-1.9207569e-58
-2.371628e-59
-4.3100973e-60
-4.2022225e-60
-4.8777264e-58
-4.8758144e-58
-6.5529604e-59
-3.8613892e-58
-3.8620991e-58
-3.1878084e-58
-3.1831276e-58
-1.9152844e-59
-4.1012304e-59
-3.0611566e-58
-1.4643193e-57
-1.7088249e-59
-7.4276037e-61
-7.9053267e-61
-1.7591095e-63
-7.9462396e-60
-7.8218194e-60
-3.6821729e-61
-3.6886279e-73
-1.9913805e-58
-1.8536648e-58
-1.490627e-59
-2.3316952e-59
0
-7.2767882e-60
-4.9121148e-59
-1.1921698e-59
-8.0654705e-64
-5.6235748e-60
-1.0679579e-71
-1.0080888e-71
-7.2912719e-60
-8.451888e-60
-2.5436447e-61
-1.3808551e-59
-5.250544e-60
-9.2795566e-62
-8.6931935e-59
-7.2304477e-59
-7.0192794e-60
-1.4044329e-59
-1.961985e-58
-1.0527877e-58
-1.1893404e-59
-1.3934182e-59
-3.1793385e-65
-1.2534662e-58
-6.720632e-61
-6.597835e-68
-6.5512974e-61
-6.8538498e-60
-3.4130617e-59
0
-1.1747394e-59
-1.1651723e-59
-1.2720456e-58
-6.849053e-60
-6.7807205e-60
-6.5572508e-61
-6.5571611e-61
-1.1738956e-59
-9.7863577e-59
-6.5619886e-61
0
-1.0857131e-58
-1.8774577e-58
-1.2706232e-58
-1.2614466e-58
-6.5573371e-61
0
-1.2162415e-59
-1.2227523e-59
-1.0979472e-58
-1.2898128e-58
-1.2623026e-58
-1.2694705e-58
-1.6577377e-76
-6.5590754e-61
-1.2691042e-58
-1.0875301e-58
-5.9973373e-58
-6.0252212e-58
-6.7689532e-60
-6.8580675e-60
-1.2683282e-58
-6.7758922e-60
-1.1681922e-59
-6.5550413e-61
-2.486957e-77
-1.0493008e-59
-1.0888043e-58
-1.2676076e-58
-1.8732016e-58
-1.1671087e-59
-1.1689775e-59
-6.5549183e-61
-1.2189163e-59
-1.2202171e-59
-6.5549182e-61
-6.8174098e-60
-1.1696359e-59
-3.1667955e-79
-2.2858122e-80
-6.5585235e-61
-6.5582626e-61
-6.5653109e-61
-1.0493249e-59
-2.6496282e-78
-6.5582732e-61
-1.5543287e-78
-1.5535312e-78
-2.3299658e-87
-3.5084787e-59
-1.2184896e-59
-1.2674418e-58
-1.0888308e-58
-3.7278283e-86
0
-6.5584416e-61
-6.5651817e-61
-1.2638162e-58
-6.555891e-61
-9.9410379e-67
-1.2931686e-58
-1.2686675e-58
-1.2631438e-58
-6.5586211e-61
-1.0488174e-59
-1.2659684e-58
-1.266072e-58
-1.0935885e-58
-1.0869329e-58
-6.5601363e-61
-6.5553055e-61
-1.2619281e-58
-3.8166029e-69
-1.8768453e-58
0
-1.0492537e-59
-1.166231e-59
-5.9299636e-58
-1.2610231e-58
-6.5575321e-61
-1.8653489e-58
-5.527864e-58
-6.8464465e-60
-1.2762928e-75
-1.0491326e-59
0
-6.5578722e-61
-6.5587966e-61
-1.165174e-59
-1.1746785e-59
-3.4132015e-59
-6.8527931e-60
-1.2249478e-59
-1.2123672e-59
-1.1515791e-68
-6.6386201e-61
-3.0129699e-66
-7.1679331e-61
-1.3323331e-58
-6.4611015e-58
-7.9920055e-60
-9.2126704e-61
-1.0047835e-60
-1.4555531e-61
-1.6073038e-61
-1.2374631e-59
-6.8534556e-59
-4.866985e-58
-1.7817205e-60
-1.9280812e-60
-1.2974085e-60
-5.8904543e-61
-2.3210211e-58
-4.5136711e-59
-1.9915172e-59
-4.2652859e-57
-6.1232277e-58
-6.7789916e-60
-4.5690638e-61
-4.8884395e-61
-1.2856235e-57
-1.6619352e-58
-1.4909966e-59
0
-1.1451222e-59
-1.2207576e-59
-6.110849e-60
-2.1123414e-60
-2.5587901e-58
-2.4145586e-58
-3.4980197e-61
-6.515276e-60
-1.4639302e-57
-3.1581631e-58
-3.9804634e-59
-3.3540002e-60
-3.1671349e-58
-3.8547872e-58
-3.2440781e-60
-5.5010534e-71
-3.0579272e-58
-3.0597497e-58
-1.5843769e-69
-2.3782969e-67
-2.7039491e-60
-2.9521994e-66
-3.0823645e-58
-2.3047794e-58
-2.5199421e-61
-4.5849629e-75
-6.2593974e-61
-1.3235127e-59
-7.0775723e-57
-2.6577921e-57
-6.1543304e-61
-1.2588541e-63
-9.596754e-58
-6.5188709e-58
-1.4271861e-58
-1.2019109e-58
-3.8703475e-61
-9.3178409e-61
-4.826262e-59
-1.3662005e-58
-1.3977902e-58
-1.1548373e-59
-5.6958219e-64
-1.9955662e-72
-9.8005506e-59
-7.3859122e-59
-8.6822453e-60
-1.8676641e-61
-1.1762391e-58
-1.3842816e-59
-2.8896035e-60
-4.7517595e-60
-8.2050106e-60
-5.7374553e-65
-7.7866429e-61
-4.4013157e-68
-8.213855e-59
-9.3636584e-59
-9.9174889e-59
-5.6496056e-60
-5.3231489e-61
-5.0329777e-60
-8.3029113e-60
-5.1175157e-77
-5.194119e-61
-8.3102156e-60
-5.3664937e-60
-4.7037921e-58
-8.5895858e-59
-1.5169218e-75
0
-5.19457e-61
-5.1940963e-61
0
-8.3102701e-60
-5.1942356e-61
-2.7047388e-59
-4.698378e-58
-8.5977994e-59
-5.1941621e-61
-2.0470152e-76
-5.1946382e-61
-5.1979211e-61
-9.6870163e-60
-5.6794759e-60
-4.7775258e-58
-4.7455995e-58
-1.0057198e-58
-1.4788058e-58
-5.193794e-61
-8.3105626e-60
-3.844128e-76
-7.1611679e-76
-4.4638188e-58
-4.4409071e-58
-8.6556564e-59
-1.0005678e-58
-1.2789883e-77
-5.118545e-77
-2.7081185e-59
-5.4067889e-60
-5.3882745e-60
-9.276416e-60
-1.4839531e-58
-1.0014525e-58
-1.2791807e-77
-5.1948532e-61
-8.3117448e-60
-5.3924381e-60
-5.2102161e-61
-2.7771495e-59
-5.1923206e-61
0
-2.7102704e-59
-5.3985232e-60
-5.1949812e-61
-9.2661253e-60
-1.0027323e-58
-5.3963983e-60
-5.194983e-61
-5.1923206e-61
-1.8455789e-87
-5.194985e-61
-2.9514163e-86
-3.199045e-78
-8.8759642e-59
-1.0285184e-58
-1.0014472e-58
-1.0039818e-58
-5.1952146e-61
-5.2024261e-61
-5.1963135e-61
-9.2791299e-60
-1.0026666e-58
-5.3857808e-60
-4.4420038e-58
-4.4625089e-58
-8.6138066e-59
-1.0050925e-58
-5.2024223e-61
-5.1963152e-61
-9.2444077e-60
-5.4135256e-60
-1.4786844e-58
-1.005731e-58
-8.311855e-60
-1.2789889e-77
0
-5.1174775e-77
-5.1937272e-61
-5.1944527e-61
-8.3101887e-60
-5.1173718e-77
-9.9871014e-59
-1.0068513e-58
-1.2092571e-82
-7.5587285e-84
-5.1938417e-61
-5.193716e-61
-5.1948555e-61
-4.207063e-59
-5.1938464e-61
-5.1999551e-61
-7.3237912e-75
-1.5375976e-75
-5.194319e-61
-5.1939867e-61
-5.1938389e-61
-9.6163155e-60
-5.727526e-60
-2.7119205e-59
-2.7315471e-59
0
-5.6776541e-61
-9.0805141e-59
-1.0633095e-58
-4.4039596e-68
-7.7912981e-61
-8.5104308e-61
0
-1.2729164e-61
-1.0676732e-60
-4.131996e-58
-4.210782e-58
-5.4838903e-60
-5.4280165e-60
-7.4995762e-59
-7.8702812e-59
-1.8687663e-58
-2.0187771e-58
-1.1438833e-58
-6.8615438e-57
-1.5602712e-57
-1.7479853e-60
-3.595971e-61
-3.8705326e-61
-6.1726713e-58
-6.2087432e-58
0
-8.6526709e-60
-5.8182835e-61
-6.1915485e-61
0
-6.2800738e-60
-2.0259803e-58
-1.9118007e-58
-1.2546884e-59
-2.138681e-59
-1.1784977e-57
-1.348145e-57
-1.8454386e-67
-2.7027883e-60
-2.5114888e-58
-2.5174623e-58
-6.6453043e-76
0
-2.0351187e-60
-2.0362495e-60
-1.9935634e-58
-2.4128582e-58
-5.4455535e-76
-3.978957e-65
-1.758923e-64
0
-1.9955125e-61
-3.63051e-75
-5.1814344e-89
-1.392013e-59
-5.6077885e-57
-2.0709426e-57
-2.3268887e-61
-9.9665431e-64
-1.0101018e-59
-1.0133203e-59
-2.7291602e-60
-8.5818143e-61
-1.4634633e-61
-2.8468812e-61
-2.5765554e-60
-5.6131947e-60
-7.5002155e-59
-1.1211365e-59
-4.5105279e-64
-1.9053942e-60
-1.7909608e-60
-1.3058739e-58
-1.5229986e-58
-1.1164228e-60
-7.3378387e-59
-1.5806438e-59
-3.3280264e-58
-4.1186939e-60
-2.9498724e-58
-8.0208906e-59
-3.7793077e-68
-5.3192979e-61
-7.7503988e-60
-3.9715616e-60
-4.4188785e-61
-3.9742825e-60
-4.0220234e-60
0
-2.1343982e-71
-6.584377e-60
-4.1143252e-61
0
-2.7113271e-68
-4.3056923e-60
-4.3002367e-60
-7.006387e-60
-2.1005443e-59
-4.1142493e-61
-1.7029515e-75
-4.1186006e-61
-4.1185961e-61
-4.1143032e-61
-4.2952775e-60
-4.2554016e-60
-4.1172708e-61
-4.1143593e-61
-4.1141381e-61
-4.1187676e-61
-6.5856486e-60
0
-1.7029498e-75
-6.8118926e-75
-6.5899405e-60
-4.1200847e-61
-4.1143228e-61
0
0
-9.1207214e-77
-4.1146113e-61
-4.1141204e-61
-4.1142459e-61
-6.582797e-60
-1.7031634e-75
-4.1307156e-61
-4.1180973e-61
-4.284602e-60
-2.1447416e-59
-7.3509708e-60
-4.2688833e-60
-4.1173265e-61
-4.1194137e-61
-1.064161e-76
-4.1193634e-61
0
-7.3446043e-60
-2.1460728e-59
-1.198301e-58
-8.1498395e-59
-1.4619044e-87
-7.3477271e-60
-4.2751528e-60
-4.1193585e-61
-4.1320344e-61
-4.1371892e-61
-6.7457895e-60
-6.4720788e-59
-3.7058678e-58
-1.1679959e-57
-7.0229191e-59
-6.5822444e-60
0
-7.3338333e-60
-7.3469651e-60
-4.0509202e-60
-4.0390267e-60
0
-4.1150622e-61
-4.1128641e-61
-7.328977e-60
-7.9417787e-59
-7.3522019e-60
-4.1192256e-61
-4.1149459e-61
-4.112865e-61
-4.1192261e-61
-4.1149449e-61
-1.702402e-75
0
-3.7425197e-85
-4.1128659e-61
0
-6.5839086e-60
-4.1173291e-61
-6.8129631e-75
0
-6.8114978e-75
-4.1189396e-61
-4.1185559e-61
-6.584809e-60
-4.1144751e-61
-4.1185587e-61
-1.2015475e-75
-5.9873495e-84
-4.1185616e-61
-1.2037367e-58
-1.1245844e-57
-1.1680151e-57
-8.1037573e-59
-4.1144754e-61
-4.1201102e-61
-5.9866464e-84
-4.1144755e-61
0
0
0
-3.3288457e-59
-7.2388473e-60
-7.3492962e-60
-4.250065e-61
-4.4205037e-61
-4.6542006e-61
-2.0967254e-72
-5.3307983e-61
-3.7833868e-68
-1.0780474e-59
0
-2.181244e-64
0
-5.8687655e-62
-6.4373074e-62
0
-7.6177387e-62
-1.7322274e-61
-1.4674196e-66
-2.1702539e-83
-1.6558385e-66
-4.7684699e-64
-4.7702447e-60
-1.7162548e-59
-2.6561944e-61
-2.864387e-61
-2.112381e-84
-3.3117782e-61
-1.7162447e-61
-1.8706381e-61
-8.5830696e-73
-4.6341253e-61
-4.8723404e-61
-1.3033616e-60
-2.2130968e-59
-2.4142792e-61
-4.9275176e-61
-4.6582139e-61
-4.2110582e-61
0
-2.4732303e-60
-3.5687336e-59
-2.1419467e-60
-2.0527919e-60
-3.260369e-59
-2.0363519e-60
-1.3803829e-70
-6.2970732e-75
-1.6127927e-60
-1.6155759e-60
-4.1621552e-70
0
-7.9103938e-58
-8.3395537e-58
-7.4787633e-58
-7.847784e-58
-3.6654458e-61
-1.4831213e-58
-1.3338366e-58
-4.0891242e-61
-8.6562196e-64
-1.8421305e-61
-3.5314215e-60
-7.3228285e-64
-2.3501863e-60
-2.8623133e-61
-2.2942926e-63
-1.1586862e-61
-9.7160563e-60
-5.4490806e-61
0
-2.1545798e-59
-3.9738451e-60
-7.8175284e-62
-1.0771002e-59
-3.0729867e-60
-1.2222537e-58
-5.4485742e-60
-9.884974e-59
-6.3252416e-60
-9.1551392e-60
-3.2825377e-58
-5.8616627e-60
-4.5452662e-60
-6.1582867e-60
-4.9652275e-59
-6.1867493e-59
-3.614123e-60
-3.1186583e-60
-3.4826002e-60
-6.1231313e-60
-3.2834008e-61
-3.2517255e-61
-6.2443081e-59
-3.5577493e-58
-5.8420927e-60
0