/*--------------------------------*- C++ -*----------------------------------*\
| =========                 |                                                 |
| \\      /  F ield         | OpenFOAM: The Open Source CFD Toolbox           |
|  \\    /   O peration     | Version:  2.4.0                                 |
|   \\  /    A nd           | Web:      www.OpenFOAM.org                      |
|    \\/     M anipulation  |                                                 |
\*---------------------------------------------------------------------------*/
FoamFile
{
    version     2.0;
    format      ascii;
    class       volSymmTensorField;
    location    "0";
    object      T03;
}
// * * * * * * * * * * * * * * * * * * * * * * * * * * * * * * * * * * * * * //

dimensions      [0 0 0 0 0 0 0];

internalField   nonuniform List<symmTensor> 
32000
(
(0.0080084817 -8.4432693e-05 0 0.0080075915 0 -0.016016073)
(0.0080083344 -6.992943e-06 -4.3477645e-21 0.0080083282 1.4937202e-17 -0.016016663)
(0.008012356 0.00043931435 2.7297521e-19 0.0079882201 1.4905834e-17 -0.016000576)
(0.0080407102 0.0012396932 3.8524365e-19 0.0078464491 7.3753908e-18 -0.015887159)
(0.0081256883 0.0023218541 7.2448628e-19 0.0074215585 7.1669381e-18 -0.015547247)
(0.0082973084 0.0035188254 1.0968331e-18 0.0065634581 6.6780236e-18 -0.014860767)
(0.0085575276 0.0045781792 1.434289e-18 0.0052623622 5.9782423e-18 -0.01381989)
(0.0088468503 0.0052568762 0 0.0038157487 0 -0.012662599)
(0.0090796664 0.0055513937 1.673714e-18 0.0026516681 4.3363945e-18 -0.011731335)
(0.0092519471 0.0056495387 1.7336754e-18 0.0017902646 3.9379052e-18 -0.011042212)
(0.0093764781 0.0056609711 0 0.0011676096 0 -0.010544088)
(0.0094648298 0.0056391294 4.2990829e-26 0.00072585104 8.3223975e-26 -0.010190681)
(0.0095270035 0.0056087109 4.5658294e-20 0.00041498248 8.4311977e-20 -0.009941986)
(0.0095682499 0.0055815658 -8.7779807e-26 0.00020875052 -1.5704326e-25 -0.0097770004)
(0.0095922117 0.005563208 0 8.8941484e-05 0 -0.0096811532)
(0.0096001988 0.0055566621 -4.6292838e-20 4.9006245e-05 -8.0796297e-20 -0.009649205)
(0.0095927697 0.0055627577 3.4848286e-18 8.6151732e-05 6.1173986e-18 -0.0096789214)
(0.0095733013 0.0055778549 3.4858972e-18 0.00018349325 6.2122128e-18 -0.0097567946)
(0.009552874 0.0055923406 1.6944225e-18 0.00028563006 3.0675099e-18 -0.009838504)
(0.0095341218 0.0056044258 1.695018e-18 0.00037939119 3.1130143e-18 -0.009913513)
(0.0095170384 0.0056144315 1.0429517e-24 0.00046480786 1.9405982e-24 -0.0099818463)
(0.0095018314 0.0056225373 -6.9314295e-25 0.00054084302 -1.3047295e-24 -0.010042674)
(0.0094887088 0.0056289283 -4.530322e-20 0.00060645617 -8.6129697e-20 -0.010095165)
(0.009477583 0.0056339102 -4.5198017e-20 0.00066208502 -8.665701e-20 -0.010139668)
(0.0094688817 0.005637528 -4.5114972e-20 0.00070559148 -8.7068981e-20 -0.010174473)
(0.0094623718 0.0056400751 0 0.00073814114 0 -0.010200513)
(0.009458007 0.0056417065 4.5008766e-20 0.00075996523 8.758049e-20 -0.010217972)
(0.0094506962 0.0056443019 -6.8568317e-25 0.00079651893 -1.341619e-24 -0.010247215)
(0.009436069 0.00564898 4.4793515e-20 0.00086965517 8.8615029e-20 -0.010305724)
(0.0094134171 0.0056548729 -4.4568007e-20 0.00098291456 -8.968377e-20 -0.010396332)
(0.0093820924 0.0056603243 -4.4235479e-20 0.0011395379 -9.113212e-20 -0.01052163)
(0.0093412219 0.0056627415 4.380102e-20 0.0013438904 9.3043729e-20 -0.010685112)
(0.0092896501 0.005658212 0 0.0016017495 0 -0.0108914)
(0.0092258803 0.005640883 -1.2957648e-24 0.0019205986 -3.0016327e-24 -0.011146479)
(0.0091478386 0.0056018503 2.1640476e-18 0.0023108072 5.3192694e-18 -0.011458646)
(0.009054168 0.0055285164 2.1209363e-18 0.0027791599 5.6058721e-18 -0.011833328)
(0.0089477041 0.0054086275 1.8876986e-18 0.0033114796 5.4344138e-18 -0.012259184)
(0.0088343908 0.0052353972 1.8326137e-18 0.0038780461 5.8073811e-18 -0.012712437)
(0.0087156244 0.0049980641 1.7153774e-20 0.0044718778 6.060847e-20 -0.013187502)
(0.0085932371 0.0046847201 -1.5805688e-20 0.0050838145 -6.3296928e-20 -0.013677052)
(0.0084704156 0.0042848213 8.684521e-25 0.0056979219 4.0265145e-24 -0.014168338)
(0.008351242 0.0037894865 -1.2407211e-20 0.0062937898 -6.8556091e-20 -0.014645032)
(0.0082408505 0.0031936332 1.2608115e-24 0.0068457476 8.6586502e-24 -0.015086598)
(0.0081453934 0.0024995192 4.001449e-21 0.0073230332 3.6486563e-20 -0.015468427)
(0.0080712331 0.0017178825 -2.7305741e-21 0.0076938343 -3.7287921e-20 -0.015765067)
(0.0080241399 0.00086891278 6.176029e-19 0.0079293004 1.6975294e-17 -0.01595344)
(0.0080085535 0.00010285167 7.3201072e-20 0.0080072325 1.7097541e-17 -0.016015786)
(0.0080083333 1.1294752e-20 -2.5354137e-52 0.0080083333 -5.3930634e-34 -0.016016667)
(0.0080083333 -1.1294815e-20 2.177928e-42 0.0080083333 -4.632632e-24 -0.016016667)
(0.0080083333 6.0709262e-20 1.1706236e-41 0.0080083333 4.6326096e-24 -0.016016667)
(0.0080083333 0 0 0.0080083333 -4.632658e-24 -0.016016667)
(0.0080083333 -3.5860855e-20 -6.9148552e-42 0.0080083333 4.6326111e-24 -0.016016667)
(0.0080083333 2.4566249e-20 -4.7370074e-42 0.0080083333 -4.6326407e-24 -0.016016667)
(0.0080083333 0 0 0.0080083333 4.6325945e-24 -0.016016667)
(0.0080083333 -3.8120004e-20 0 0.0080083333 0 -0.016016667)
(0.0080083333 0 0 0.0080083333 0 -0.016016667)
(0.0080083333 -4.2267629e-17 -3.0014498e-32 0.0080083333 1.7060297e-17 -0.016016667)
(0.0080083333 4.2305603e-17 3.0088333e-32 0.0080083333 1.7086914e-17 -0.016016667)
(0.0080083333 -4.2342582e-17 1.5027999e-32 0.0080083333 -8.5268225e-18 -0.016016667)
(0.0080083333 4.2293609e-17 -1.503291e-32 0.0080083333 -8.5394853e-18 -0.016016667)
(0.0080083333 4.2637669e-20 -3.0279478e-35 0.0080083333 -1.7061544e-17 -0.016016667)
(0.0080083333 6.7768776e-21 -4.8194586e-36 0.0080083333 -1.708567e-17 -0.016016667)
(0.0080083333 0 0 0.0080083333 0 -0.016016667)
(0.0080083333 -7.3981097e-20 0 0.0080083333 0 -0.016016667)
(0.0080083333 8.527538e-20 -8.2215962e-42 0.0080083333 -2.3163057e-24 -0.016016667)
(0.0080083333 4.2249842e-17 8.1468915e-39 0.0080083333 4.6326581e-24 -0.016016667)
(0.0080083333 -4.2249411e-17 8.1467253e-39 0.0080083333 -4.6326108e-24 -0.016016667)
(0.0080083333 4.2293169e-17 1.5012906e-32 0.0080083333 8.5282108e-18 -0.016016667)
(0.0080083333 -4.2341599e-17 -3.0090743e-32 0.0080083333 1.7073755e-17 -0.016016667)
(0.0080083333 -1.1294568e-21 -4.0172666e-37 0.0080083333 8.5452432e-18 -0.016016667)
(0.0080083333 0 0 0.0080083333 2.3163213e-24 -0.016016667)
(0.0080083333 4.941434e-20 0 0.0080083333 0 -0.016016667)
(0.0080083333 0 0 0.0080083333 2.3163318e-24 -0.016016667)
(0.0080083333 -6.0708997e-20 5.8530665e-42 0.0080083333 -2.3162946e-24 -0.016016667)
(0.0080083333 0 0 0.0080083333 0 -0.016016667)
(0.0080083333 1.1294763e-20 -2.5354186e-52 0.0080083333 -5.3930686e-34 -0.016016667)
(0.0080083333 -5.6474043e-21 2.0049988e-36 0.0080083333 -8.5295991e-18 -0.016016667)
(0.0080083333 -5.6473763e-21 2.0066616e-36 0.0080083333 -8.5367155e-18 -0.016016667)
(0.0080083333 0 0 0.0080083333 2.3163209e-24 -0.016016667)
(0.0080083333 0 0 0.0080083333 -2.3163212e-24 -0.016016667)
(0.0080083333 0 0 0.0080083333 2.3163857e-24 -0.016016667)
(0.0080083333 -4.2289899e-17 -1.501555e-32 0.0080083333 8.5303726e-18 -0.016016667)
(0.0080083333 4.235598e-17 1.5048829e-32 0.0080083333 8.53594e-18 -0.016016667)
(0.0080083333 -4.2300435e-17 2.0392186e-39 0.0080083333 -1.1581968e-24 -0.016016667)
(0.0080083333 4.2246134e-17 2.0363655e-39 0.0080083333 1.1580629e-24 -0.016016667)
(0.0080083333 3.8121638e-20 0 0.0080083333 0 -0.016016667)
(0.0080083333 0 0 0.0080083333 1.1581967e-24 -0.016016667)
(0.0080083333 -3.8116795e-20 1.8373213e-42 0.0080083333 -1.1580629e-24 -0.016016667)
(0.0080083333 -6.0712287e-20 0 0.0080083333 0 -0.016016667)
(0.0080083333 4.9412548e-20 0 0.0080083333 0 -0.016016667)
(0.0080083333 4.2300791e-17 1.0196265e-39 0.0080083333 5.7910327e-25 -0.016016667)
(0.0080083333 -4.228834e-17 -1.5030554e-32 0.0080083333 8.5392109e-18 -0.016016667)
(0.0080083333 4.2294217e-17 1.5037003e-32 0.0080083333 8.5416878e-18 -0.016016667)
(0.0080083333 -4.225137e-17 1.0184351e-39 0.0080083333 -5.7910321e-25 -0.016016667)
(0.0080083333 -4.9416787e-20 0 0.0080083333 0 -0.016016667)
(0.0080083333 0 0 0.0080083333 0 -0.016016667)
(0.0080083333 1.1295015e-21 4.0149539e-37 0.0080083333 8.5399855e-18 -0.016016667)
(0.0080083333 4.828729e-20 1.7166184e-35 0.0080083333 8.5409136e-18 -0.016016667)
(0.0080083333 -6.0704285e-20 0 0.0080083333 0 -0.016016667)
(0.0080083333 1.1295285e-20 0 0.0080083333 0 -0.016016667)
(0.0080083333 -1.1295285e-20 0 0.0080083333 0 -0.016016667)
(0.0080083333 1.1293834e-20 0 0.0080083333 0 -0.016016667)
(0.0080083333 1.1295013e-21 -4.0153894e-37 0.0080083333 -8.5409136e-18 -0.016016667)
(0.0080083333 -1.1295015e-21 4.0149539e-37 0.0080083333 -8.5399858e-18 -0.016016667)
(0.0080083333 0 0 0.0080083333 2.8951436e-25 -0.016016667)
(0.0080083333 0 0 0.0080083333 0 -0.016016667)
(0.0080083333 -5.6476435e-21 -2.0061743e-36 0.0080083333 8.5342389e-18 -0.016016667)
(0.0080083333 6.7762735e-21 -2.7115668e-39 0.0080083333 -9.6137491e-21 -0.016016667)
(0.0080083333 -1.2424783e-20 4.4161434e-36 0.0080083333 -8.5392114e-18 -0.016016667)
(0.0080083333 0 0 0.0080083333 1.1582065e-24 -0.016016667)
(0.0080083333 0 0 0.0080083333 -1.1581066e-24 -0.016016667)
(0.0080083333 1.1295323e-20 0 0.0080083333 0 -0.016016667)
(0.0080083333 0 0 0.0080083333 -1.1580629e-24 -0.016016667)
(0.0080083333 -1.1295193e-20 -1.0890369e-42 0.0080083333 2.3163935e-24 -0.016016667)
(0.0080083333 1.1295322e-20 -5.4453093e-43 0.0080083333 -1.15821e-24 -0.016016667)
(0.0080083333 0 0 0.0080083333 0 -0.016016667)
(0.0080083333 0 0 0.0080083333 1.1581968e-24 -0.016016667)
(0.0080083333 -1.1295322e-20 5.4453086e-43 0.0080083333 -1.15821e-24 -0.016016667)
(0.0080083333 0 0 0.0080083333 -1.1580629e-24 -0.016016667)
(0.0080083333 0 0 0.0080083333 1.1581968e-24 -0.016016667)
(0.0080083333 5.6476605e-21 -2.0066887e-36 0.0080083333 -8.5364013e-18 -0.016016667)
(0.0080083333 -5.646944e-21 2.0049093e-36 0.0080083333 -8.5299137e-18 -0.016016667)
(0.0080083333 5.6475969e-21 2.00674e-36 0.0080083333 8.5367157e-18 -0.016016667)
(0.0080083333 5.6476601e-21 2.005089e-36 0.0080083333 8.5295967e-18 -0.016016667)
(0.0080083333 1.3552612e-20 1.3065372e-42 0.0080083333 2.316126e-24 -0.016016667)
(0.0080083333 -1.9201776e-20 6.8232658e-36 0.0080083333 -8.537177e-18 -0.016016667)
(0.0080083333 5.6476598e-21 -2.004981e-36 0.0080083333 -8.5291378e-18 -0.016016667)
(0.0080083333 4.2634382e-20 3.0313924e-35 0.0080083333 1.708227e-17 -0.016016667)
(0.0080083333 -4.2639313e-20 -3.0286678e-35 0.0080083333 1.7064943e-17 -0.016016667)
(0.0080083333 -1.1295319e-20 0 0.0080083333 0 -0.016016667)
(0.0080083333 1.2423251e-20 -4.41872e-36 0.0080083333 -8.5452473e-18 -0.016016667)
(0.0080083333 -1.1295013e-21 4.0129153e-37 0.0080083333 -8.535651e-18 -0.016016667)
(0.0080083333 0 0 0.0080083333 0 -0.016016667)
(0.0080083333 0 0 0.0080083333 -2.3162872e-24 -0.016016667)
(0.0080083333 -1.1294997e-20 -1.0889991e-42 0.0080083333 2.3163533e-24 -0.016016667)
(0.0080083333 -2.1136931e-17 7.5235945e-33 0.0080083333 -8.5515894e-18 -0.016016667)
(0.0080083333 2.1136818e-17 -7.5039527e-33 0.0080083333 -8.5293095e-18 -0.016016667)
(0.0080083333 1.1294997e-20 0 0.0080083333 0 -0.016016667)
(0.0080083333 2.1149359e-17 5.309644e-36 0.0080083333 6.0315869e-21 -0.016016667)
(0.0080083333 -2.1160533e-17 5.3124189e-36 0.0080083333 -6.0315524e-21 -0.016016667)
(0.0080083333 1.1294997e-20 0 0.0080083333 0 -0.016016667)
(0.0080083333 -1.1294737e-20 2.1778979e-42 0.0080083333 -4.6326e-24 -0.016016667)
(0.0080083333 1.1294668e-20 -2.5353761e-52 0.0080083333 -5.3930234e-34 -0.016016667)
(0.0080083333 -1.1294997e-20 -2.1779982e-42 0.0080083333 4.6327066e-24 -0.016016667)
(0.0080083333 1.1294739e-20 2.1778987e-42 0.0080083333 4.6326008e-24 -0.016016667)
(0.0080083333 -1.1294666e-20 2.1778707e-42 0.0080083333 -4.632571e-24 -0.016016667)
(0.0080083333 0 0 0.0080083333 0 -0.016016667)
(0.0080083333 0 0 0.0080083333 -4.6326016e-24 -0.016016667)
(0.0080083333 1.1294664e-20 2.1778699e-42 0.0080083333 4.6325702e-24 -0.016016667)
(0.0080083333 4.9415538e-20 -9.5287282e-42 0.0080083333 -4.6327067e-24 -0.016016667)
(0.0080083333 -6.0709168e-20 -1.1706199e-41 0.0080083333 4.6326024e-24 -0.016016667)
(0.0080083333 1.1294662e-20 0 0.0080083333 0 -0.016016667)
(0.0080083333 -1.1295291e-20 2.1781116e-42 0.0080083333 -4.6328272e-24 -0.016016667)
(0.008008553 -0.00010273737 5.0515419e-24 0.0080072349 -1.1811992e-21 -0.016015788)
(0.0080241446 -0.00086904081 -6.8752203e-22 0.0079292769 1.8894258e-20 -0.015953422)
(0.0080712652 -0.0017183105 0 0.0076936738 0 -0.015764939)
(0.0081452641 -0.002498404 -4.8825301e-25 0.0073236795 4.4542703e-24 -0.015468944)
(0.0082409592 -0.0031943082 0 0.0068452042 0 -0.015086163)
(0.0083514079 -0.0037902679 7.5743693e-25 0.0062929604 -4.1840594e-24 -0.014644368)
(0.0084700487 -0.0042834757 1.5623424e-21 0.0056997565 -7.2471658e-21 -0.014169805)
(0.0085933153 -0.0046849453 1.0309901e-22 0.0050834236 -4.1284457e-22 -0.013676739)
(0.0087157973 -0.0049984546 -1.9154412e-20 0.0044710136 6.7665964e-20 -0.013186811)
(0.008834673 -0.0052358907 0 0.0038766349 0 -0.012711308)
(0.0089476451 -0.0054085498 1.6844985e-20 0.0033117746 -4.8496646e-20 -0.01225942)
(0.0090535109 -0.0055278976 -4.0106798e-20 0.0027824453 1.0606153e-19 -0.011835956)
(0.0091479116 -0.0056018961 2.5586479e-21 0.0023104421 -6.2888529e-21 -0.011458354)
(0.0092260578 -0.0056409493 0 0.0019197111 0 -0.011145769)
(0.0092897897 -0.0056582357 -1.3191368e-24 0.0016010515 2.9123063e-24 -0.010890841)
(0.0093413633 -0.0056627423 2.6735099e-24 0.0013431833 -5.678566e-24 -0.010684547)
(0.0093822059 -0.0056603102 -1.3500761e-24 0.0011389706 2.7811349e-24 -0.010521176)
(0.0094135519 -0.0056548427 0 0.00098224058 0 -0.010395792)
(0.0094362189 -0.0056489355 4.4795506e-20 0.00086890536 -8.8608963e-20 -0.010305124)
(0.0094507955 -0.0056442678 1.7327797e-18 0.00079602243 -3.3901314e-18 -0.010246818)
(0.0094580111 -0.005641705 1.7304621e-18 0.0007599445 -3.3672161e-18 -0.010217956)
(0.0094622343 -0.0056401274 -6.8743538e-25 0.00073882849 1.3333862e-24 -0.010201063)
(0.0094678315 -0.0056379481 0 0.00071084255 0 -0.010178674)
(0.0094776932 -0.0056338628 -6.8969506e-25 0.00066153375 1.3222245e-24 -0.010139227)
(0.0094888171 -0.0056288778 1.7369063e-18 0.00060591458 -3.301905e-18 -0.010094732)
(0.0095019094 -0.0056224976 1.7359106e-18 0.00054045279 -3.2673773e-18 -0.010042362)
(0.0095170827 -0.0056144068 6.9530847e-25 0.00046458643 -1.2937021e-24 -0.0099816691)
(0.0095341825 -0.0056043885 0 0.00037908732 0 -0.0099132699)
(0.0095529061 -0.0055923189 0 0.00028546972 0 -0.0098383758)
(0.009573333 -0.0055778314 0 0.00018333512 0 -0.0097566681)
(0.0095927916 -0.0055627399 4.6768972e-20 8.6041948e-05 -8.2098606e-20 -0.0096788336)
(0.0096002171 -0.0055566469 -1.1609865e-22 4.8914628e-05 2.0262761e-22 -0.0096491317)
(0.0095922254 -0.0055631969 -1.1475371e-22 8.8872812e-05 2.0152809e-22 -0.0096810982)
(0.0095683239 -0.005581512 4.5716714e-20 0.00020838042 -8.1785234e-20 -0.0097767043)
(0.0095270356 -0.005608692 -8.7086698e-26 0.00041482207 1.6080916e-25 -0.0099418577)
(0.0094648879 -0.0056391068 4.5082346e-20 0.00072556035 -8.7269012e-20 -0.010190448)
(0.0093766304 -0.0056609549 7.8882184e-23 0.0011668481 -1.6317673e-22 -0.010543478)
(0.0092521182 -0.0056495884 4.2847928e-20 0.0017894089 -9.7313111e-20 -0.011041527)
(0.0090793264 -0.0055511031 -1.3312888e-22 0.0026533682 3.4501258e-22 -0.011732695)
(0.0088464232 -0.0052561502 1.6270079e-18 0.0038178841 -5.1019577e-18 -0.012664307)
(0.0085577836 -0.0045789697 1.43489e-18 0.0052610822 -5.9789928e-18 -0.013818866)
(0.0082974258 -0.0035194537 -1.1456675e-20 0.0065628708 6.9737601e-20 -0.014860297)
(0.0081256011 -0.0023210313 -3.709171e-21 0.0074219944 3.6707017e-20 -0.015547595)
(0.0080407154 -0.0012397909 7.4952334e-27 0.0078464232 -1.4348273e-25 -0.015887139)
(0.0080123573 -0.00043938466 -1.7360194e-22 0.0079882136 9.4780268e-21 -0.016000571)
(0.0080083344 7.0269644e-06 -4.3686446e-21 0.0080083282 -1.4936271e-17 -0.016016663)
(0.0080084817 8.4435857e-05 -5.2491462e-20 0.0080075914 -1.4934855e-17 -0.016016073)
(1.9888039e-46 0 0 -3.9776078e-46 0 1.9888039e-46)
(9.3230882e-30 8.3427622e-33 -2.6267227e-32 -1.6083198e-29 -8.0692921e-30 6.7601102e-30)
(3.4706698e-29 -0 -0 -6.6849423e-29 1.6136516e-29 3.2142725e-29)
(1.9026794e-29 0 0 -3.8053588e-29 0 1.9026794e-29)
(5.6531828e-30 4.3439136e-31 3.4102827e-31 -8.2667397e-31 8.1846785e-30 -4.8265088e-30)
(2.2039818e-30 0 6.7781962e-31 -4.1843843e-30 0 1.9804025e-30)
(2.2995103e-30 0 -7.1018888e-31 -4.3636177e-30 -0 2.0641074e-30)
(0 0 0 0 0 0)
(7.2258369e-30 3.2126751e-30 2.8980069e-30 -2.939588e-30 6.5205155e-30 -4.2862489e-30)
(3.1058201e-30 0 0 -2.8431117e-30 -4.4765106e-30 -2.6270841e-31)
(2.8963818e-31 -0 -0 2.8963818e-31 5.3034335e-38 -5.7927637e-31)
(5.7958636e-30 3.5357228e-30 -7.5428825e-32 1.077946e-30 -1.6971486e-31 -6.8738097e-30)
(2.9697186e-31 0 0 2.9333753e-31 -5.6786162e-32 -5.9030939e-31)
(1.6005485e-29 0 -4.2271446e-30 -3.0837167e-29 0 1.4831682e-29)
(1.8206031e-29 1.152625e-30 -8.2728e-30 -3.0937093e-29 -6.2046e-30 1.2731062e-29)
(7.4713195e-31 0 -2.7360789e-37 -3.7356598e-31 0 -3.7356598e-31)
(6.291224e-30 0 0 -1.2582448e-29 0 6.291224e-30)
(8.8051202e-30 0 5.000485e-30 -1.3476912e-29 0 4.6717919e-30)
(2.2179891e-30 4.948583e-31 1.1389776e-30 -2.7039742e-30 1.7084664e-30 4.859851e-31)
(2.2842284e-30 0 0 -1.718364e-30 -3.3775376e-30 -5.6586447e-31)
(6.10161e-31 0 -2.9243256e-32 -3.064842e-31 0 -3.036768e-31)
(2.2019261e-31 0 0 2.2019261e-31 -6.4509554e-37 -4.4038522e-31)
(8.7104181e-34 0 0 -1.7420836e-33 0 8.7104181e-34)
(2.4014394e-30 8.2306168e-31 -5.2675144e-32 -8.9333573e-31 -3.9506358e-32 -1.5081036e-30)
(5.3193319e-31 0 3.895995e-37 -2.6596659e-31 0 -2.6596659e-31)
(1.9369925e-31 -0 -0 1.9369925e-31 5.6747826e-37 -3.8739849e-31)
(2.7637086e-30 1.5070566e-30 4.8225074e-32 -2.5271927e-31 7.2337611e-32 -2.5109893e-30)
(4.8806004e-31 0 -7.149317e-37 -2.4403002e-31 0 -2.4403002e-31)
(1.7799946e-31 -0 -0 1.7582099e-31 3.4037513e-32 -3.5382045e-31)
(4.5718725e-31 0 -2.1911332e-32 -2.2964537e-31 0 -2.2754188e-31)
(4.4003545e-31 0 2.1088667e-32 -2.2102995e-31 0 -2.190055e-31)
(5.8059389e-31 -3.163342e-31 2.0245389e-32 -5.4018072e-32 -3.0368084e-32 -5.2657582e-31)
(1.7667258e-30 6.0573458e-31 1.1830753e-36 -6.5621246e-31 8.8730651e-37 -1.1105134e-30)
(5.3007816e-31 2.8913354e-31 0 -4.8188924e-32 0 -4.8188924e-31)
(2.0950234e-30 -0 -0 -2.5370292e-30 2.7671041e-30 4.4200576e-31)
(1.8949772e-30 0 8.9988193e-31 -3.2660629e-30 0 1.3710857e-30)
(1.3550167e-30 -0 -0 -2.3362674e-30 1.1745963e-30 9.8125069e-31)
(1.0857957e-29 0 0 -2.1715914e-29 0 1.0857957e-29)
(5.4304548e-30 2.2742756e-31 -7.4644068e-31 -9.3826305e-30 -4.4786441e-30 3.9521757e-30)
(5.5963781e-30 2.1840695e-31 -7.453134e-31 -9.773111e-30 -4.4718804e-30 4.1767329e-30)
(7.021092e-30 8.4261102e-31 -1.4593489e-30 -8.5652124e-30 -8.7560934e-30 1.5441204e-30)
(6.8073713e-31 -4.0837954e-31 -6.5344715e-33 2.7204391e-31 1.9603414e-32 -9.5278104e-31)
(5.2804323e-30 0 0 -9.3667064e-30 -4.1822242e-30 4.0862742e-30)
(5.3576914e-30 1.952031e-31 -6.9171094e-31 -9.4465628e-30 -4.1502656e-30 4.0888713e-30)
(1.6160143e-32 0 -1.5418073e-33 -8.228076e-33 0 -7.932067e-33)
(4.9844324e-30 0 8.6394148e-32 -9.9673671e-30 0 4.9829347e-30)
(6.5026006e-30 2.3992793e-32 4.3150842e-32 -8.3982101e-30 8.2849616e-30 1.8956095e-30)
(1.5363006e-30 -1.303048e-32 7.4069701e-49 1.53619e-30 -2.6197317e-46 -3.0724906e-30)
(2.5003971e-34 0 -1.1720611e-38 -1.2501986e-34 -0 -1.2501986e-34)
(3.8448919e-31 1.5773769e-32 -1.5404071e-38 3.8384134e-31 -1.1251678e-36 -7.6833052e-31)
(2.4697916e-35 0 -1.7153332e-48 -1.2348958e-35 -0 -1.2348958e-35)
(2.7767834e-30 -2.1260324e-32 -1.9103595e-32 -9.4458217e-31 4.1411672e-30 -1.8322012e-30)
(1.6290452e-30 5.1436831e-33 9.2607668e-33 -2.1058342e-30 2.0744159e-30 4.76789e-31)
(3.8412846e-31 -6.5152068e-33 0 3.8401794e-31 -0 -7.681464e-31)
(3.8406257e-31 0 0 3.8406257e-31 0 -7.6812514e-31)
(3.8411505e-31 5.4866196e-33 0 3.8403667e-31 0 -7.6815172e-31)
(5.3675529e-30 -1.200188e-32 4.3232034e-32 -9.5825503e-30 -4.1502753e-30 4.2149974e-30)
(5.3514649e-30 -1.8517051e-32 -6.6590542e-32 -9.5498645e-30 4.1434133e-30 4.1983996e-30)
(1.2449027e-30 0 -2.1605888e-32 -2.4894303e-30 0 1.2445276e-30)
(1.2407515e-30 0 -4.930776e-33 -2.4814833e-30 -0 1.2407319e-30)
(4.9591421e-30 0 4.3126113e-32 -9.9179091e-30 0 4.958767e-30)
(3.848529e-31 2.1260614e-32 -8.0476235e-35 3.8365947e-31 -4.3612936e-33 -7.6851237e-31)
(1.487966e-34 0 -9.0414641e-39 -7.4398301e-35 0 -7.43983e-35)
(1.3063393e-35 0 0 -6.5316963e-36 0 -6.5316963e-36)
(3.8458848e-31 1.7488345e-32 0 3.8379214e-31 0 -7.6838062e-31)
(3.8411758e-31 5.4866557e-33 0 3.840392e-31 0 -7.6815677e-31)
(3.4565174e-30 0 0 3.4565174e-30 -1.6877526e-36 -6.9130348e-30)
(1.628354e-30 6.51525e-33 -1.1726871e-32 -2.1044255e-30 -2.0738073e-30 4.7607148e-31)
(3.105482e-29 0 -1.2334076e-32 -6.2109635e-29 -0 3.1054815e-29)
(1.9902968e-29 0 5.677645e-32 -3.9805774e-29 0 1.9902806e-29)
(3.8411501e-31 -5.4866191e-33 0 3.8403663e-31 0 -7.6815165e-31)
(1.5362713e-30 -1.097301e-32 -1.2474868e-48 1.536193e-30 5.2394367e-46 -3.0724643e-30)
(3.8406624e-31 0 0 3.8406624e-31 0 -7.6813247e-31)
(7.3683629e-35 0 -7.4069161e-49 -3.6841815e-35 -0 -3.6841815e-35)
(3.8466053e-31 -1.8517427e-32 -9.0417125e-39 3.8376773e-31 5.6259569e-37 -7.6842825e-31)
(3.843075e-31 -1.2001796e-32 -5.8602519e-39 3.8393245e-31 5.6258418e-37 -7.6823995e-31)
(1.6279049e-30 5.4865878e-33 -9.8736189e-33 -2.1035496e-30 -2.0734569e-30 4.7564477e-31)
(1.2431054e-30 0 5.3023497e-32 -2.4839463e-30 0 1.240841e-30)
(2.250367e-33 0 1.7580992e-38 -1.1251835e-33 0 -1.1251835e-33)
(5.9519875e-34 0 1.8083303e-38 -2.9759937e-34 0 -2.9759937e-34)
(3.8408412e-31 0 0 3.8408412e-31 -5.6262323e-37 -7.6816825e-31)
(1.6276027e-30 5.4856935e-33 -9.8718633e-33 -2.1031331e-30 -2.0730882e-30 4.7553039e-31)
(1.6264614e-30 1.7490068e-32 3.1448786e-32 -2.0998401e-30 2.0719191e-30 4.7337869e-31)
(1.5363991e-30 -1.0973923e-32 -1.3395902e-39 1.5363207e-30 5.6262702e-37 -3.0727198e-30)
(1.1561397e-29 -4.1142699e-33 2.2197197e-32 -2.1970755e-29 -6.2152057e-30 1.0409359e-29)
(1.1190261e-29 0 -7.4042703e-33 -2.2380517e-29 -0 1.1190256e-29)
(3.8409975e-31 2.7434804e-33 6.6979503e-40 3.8408015e-31 2.8131349e-37 -7.681799e-31)
(1.536044e-30 -1.0971386e-32 1.3392805e-39 1.5359656e-30 -5.6249697e-37 -3.0720096e-30)
(4.9688614e-30 0 5.3037388e-32 -9.9371566e-30 0 4.9682952e-30)
(4.9734682e-30 0 -7.6497956e-32 -9.9457596e-30 -0 4.9722914e-30)
(5.9524592e-34 0 0 -2.9762296e-34 0 -2.9762296e-34)
(2.7838231e-30 7.2017383e-32 -6.4834948e-32 -9.5515792e-31 -4.1494367e-30 -1.8286652e-30)
(1.2454364e-30 0 4.3204479e-32 -2.4893727e-30 0 1.2439364e-30)
(5.2257722e-35 0 0 -2.6128861e-35 0 -2.6128861e-35)
(3.8414504e-31 -5.487048e-33 0 3.8406666e-31 -0 -7.682117e-31)
(0 0 0 0 0 0)
(1.2454933e-30 0 3.1488261e-32 -2.4901902e-30 0 1.2446969e-30)
(1.6292991e-30 -1.7489951e-32 -3.1484623e-32 -2.1055231e-30 2.0742801e-30 4.7622406e-31)
(3.8424434e-31 -1.1999823e-32 -1.8310277e-40 3.8386934e-31 1.7577866e-38 -7.6811368e-31)
(1.5364455e-30 1.3031709e-32 -9.9399774e-41 1.536335e-30 -3.5156175e-38 -3.0727805e-30)
(7.3691115e-35 0 2.4273448e-44 -3.6845557e-35 0 -3.6845557e-35)
(2.4999631e-34 0 0 -1.2499816e-34 0 -1.2499816e-34)
(1.2452063e-30 0 -3.1484625e-32 -2.4896161e-30 0 1.2444099e-30)
(3.8471142e-31 1.8861721e-32 2.8998068e-35 3.8378245e-31 1.7715174e-33 -7.6849387e-31)
(1.242458e-30 0 2.4668646e-33 -2.4849111e-30 0 1.2424531e-30)
(3.8414505e-31 5.4870482e-33 6.6980568e-40 3.8406667e-31 1.4065898e-37 -7.6821172e-31)
(1.2424333e-30 0 1.1718633e-32 -2.4847561e-30 0 1.2423228e-30)
(3.8399474e-31 0 0 3.8399354e-31 -1.174059e-33 -7.6798828e-31)
(1.245254e-30 0 -9.8796261e-33 -2.4904296e-30 0 1.2451756e-30)
(1.0002426e-33 0 -5.8607966e-39 -5.0012131e-34 -0 -5.0012131e-34)
(5.9514325e-34 0 -4.5204043e-39 -2.9757162e-34 0 -2.9757162e-34)
(7.3691614e-35 0 -1.5907955e-39 -3.6845807e-35 -0 -3.6845807e-35)
(3.8399793e-31 0 0 3.8399793e-31 0 -7.6799586e-31)
(1.5097293e-33 0 0 -7.5486466e-34 0 -7.5486466e-34)
(1.0002487e-33 0 5.8608321e-39 -5.0012434e-34 0 -5.0012434e-34)
(3.8407162e-31 6.5142427e-33 1.5903913e-39 3.8396111e-31 2.812485e-37 -7.6803274e-31)
(3.841604e-31 6.5157485e-33 0 3.8404986e-31 0 -7.6821026e-31)
(3.850957e-31 -2.4005965e-32 1.1721663e-38 3.8359532e-31 -5.6263982e-37 -7.6869102e-31)
(3.8452878e-31 -1.748563e-32 0 3.8373256e-31 0 -7.6826135e-31)
(5.9523593e-34 0 9.0422165e-39 -2.9761797e-34 0 -2.9761797e-34)
(1.6260368e-30 -1.2002981e-32 2.158124e-32 -2.0994122e-30 -2.071799e-30 4.7337546e-31)
(1.6286943e-30 2.3999874e-32 4.3191836e-32 -2.1038946e-30 2.0732081e-30 4.7520032e-31)
(1.2438462e-30 0 6.4740499e-32 -2.4843166e-30 0 1.2404704e-30)
(1.6281382e-30 -1.200298e-32 -2.1599493e-32 -2.1036152e-30 2.0735513e-30 4.7547702e-31)
(3.8424801e-31 1.1999938e-32 2.7284704e-48 3.8387301e-31 2.6193316e-46 -7.6812102e-31)
(1.6257902e-30 -1.2002712e-32 -2.157893e-32 -2.0989449e-30 2.0715773e-30 4.7315471e-31)
(1.2439353e-30 0 0 -2.4878706e-30 0 1.2439353e-30)
(4.9699236e-30 0 -4.3169643e-32 -9.9394721e-30 -0 4.9695486e-30)
(4.981377e-30 0 8.64422e-32 -9.9612536e-30 0 4.9798766e-30)
(3.8409526e-31 -0 -0 3.8409526e-31 5.6263954e-37 -7.6819052e-31)
(1.1578914e-29 -9.2570919e-33 4.9982457e-32 -2.2005611e-29 -6.2200418e-30 1.0426697e-29)
(1.1185908e-29 0 1.4805603e-32 -2.2371797e-29 0 1.1185888e-29)
(3.8405529e-31 -0 -0 3.8405529e-31 5.6258099e-37 -7.6811057e-31)
(2.500335e-34 0 0 -1.2501675e-34 0 -1.2501675e-34)
(3.8412562e-31 -5.4867705e-33 -6.2377359e-49 3.8404724e-31 1.3099226e-46 -7.6817285e-31)
(1.2449006e-30 0 5.799085e-32 -2.4870959e-30 0 1.2421953e-30)
(1.2477822e-30 0 -4.8186397e-32 -2.4937017e-30 0 1.2459195e-30)
(7.3687359e-35 0 0 -3.684368e-35 0 -3.684368e-35)
(3.8405556e-31 0 0 3.8405556e-31 1.1251628e-36 -7.6811111e-31)
(3.8412485e-31 6.5151456e-33 -1.4813726e-48 3.8401433e-31 -2.6196938e-46 -7.6813918e-31)
(1.5363672e-30 1.3031044e-32 0 1.5362566e-30 0 -3.0726238e-30)
(3.8430573e-31 -1.200174e-32 0 3.8393067e-31 -0 -7.682364e-31)
(7.3683075e-35 0 -7.4068603e-49 -3.6841537e-35 0 -3.6841537e-35)
(4.9793646e-30 0 -5.3091887e-32 -9.9581631e-30 0 4.9787985e-30)
(5.3466207e-30 1.4745005e-32 5.3001031e-32 -9.5405078e-30 4.1414747e-30 4.1938871e-30)
(1.5364536e-30 2.4003181e-32 1.1720303e-38 1.5360786e-30 2.2502982e-36 -3.0725322e-30)
(3.8407338e-31 0 0 3.8407338e-31 -1.125215e-36 -7.6814676e-31)
(1.6290414e-30 -5.1435963e-33 9.2606987e-33 -2.1058461e-30 -2.0744006e-30 4.7680465e-31)
(2.7766377e-30 -1.3716119e-32 1.2324792e-32 -9.4454396e-31 -4.1411239e-30 -1.8320938e-30)
(1.4880381e-34 0 1.0526159e-48 -7.4401905e-35 0 -7.4401905e-35)
(3.8406916e-31 2.7432619e-33 -2.6789667e-39 3.8404956e-31 -1.1251643e-36 -7.6811872e-31)
(3.8430065e-31 1.2001582e-32 1.1720295e-38 3.839256e-31 1.1251483e-36 -7.6822625e-31)
(5.3651827e-30 1.4746445e-32 5.3102462e-32 -9.5775191e-30 4.1494005e-30 4.2123364e-30)
(5.3406943e-30 -8.995773e-33 -3.2327543e-32 -9.5297187e-30 4.1379255e-30 4.1890245e-30)
(3.8348319e-31 -0 -0 3.8340957e-31 9.2030076e-33 -7.6689276e-31)
(3.8550406e-31 -0 -0 3.8550406e-31 1.1294064e-36 -7.7100813e-31)
(4.0662374e-31 -9.75837e-32 7.8086019e-34 3.8215284e-31 -9.3703223e-33 -7.8877658e-31)
(4.1468805e-31 -9.9525131e-32 9.7192511e-38 3.8980676e-31 -1.1663101e-36 -8.0449481e-31)
(1.0455842e-34 0 0 -2.0911684e-34 0 1.0455842e-34)
(7.0212285e-31 -4.2120901e-31 -6.7397554e-33 2.8059032e-31 2.0219266e-32 -9.8271317e-31)
(5.7842234e-30 0 0 -1.0257931e-29 -4.5851381e-30 4.473708e-30)
(5.7505317e-30 0 -1.5741188e-30 -1.1046185e-29 -0 5.2956533e-30)
(5.5480896e-31 -2.377231e-31 -3.8038017e-33 4.3558222e-31 2.282281e-32 -9.9039118e-31)
(8.3107734e-31 -4.983402e-31 1.5947373e-32 3.3120614e-31 -4.784212e-32 -1.1622835e-30)
(4.8060723e-31 -2.6185686e-31 -1.6759351e-32 -4.4715442e-32 2.5139026e-32 -4.3589179e-31)
(5.3910117e-30 0 -1.6637406e-30 -1.0231026e-29 -0 4.8400147e-30)
(5.3049583e-30 -0 -0 -1.0176156e-29 2.5913516e-30 4.8711974e-30)
(1.5206289e-31 -0 -0 1.5020197e-31 2.9076976e-32 -3.0226486e-31)
(4.2180992e-31 0 0 -2.1090496e-31 0 -2.1090496e-31)
(1.0984586e-30 -6.5907518e-31 0 4.3938346e-31 -0 -1.5378421e-30)
(6.2843188e-31 -3.4239853e-31 2.1913506e-32 -5.8468887e-32 -3.2870259e-32 -5.6996299e-31)
(1.8918949e-30 0 4.5386664e-32 -9.4703668e-31 0 -9.4485818e-31)
(1.7815399e-30 -3.6607077e-31 9.0165261e-31 -2.2818322e-30 -1.3524789e-30 5.0029223e-31)
(1.6473159e-30 0 9.2883369e-31 -2.5411511e-30 0 8.9383517e-31)
(7.1101723e-31 -3.8739483e-31 2.4793269e-32 -6.6152574e-32 -3.7189903e-32 -6.4486466e-31)
(5.3156272e-31 0 0 -2.6578136e-31 0 -2.6578136e-31)
(8.2313138e-31 -0 -0 8.2313138e-31 1.2057589e-36 -1.6462628e-30)
(2.056733e-30 4.2536421e-31 -1.0422543e-30 -2.6246913e-30 -1.5633814e-30 5.679583e-31)
(1.2525921e-30 0 0 -2.5051842e-30 0 1.2525921e-30)
(8.3770475e-31 -4.5692986e-31 0 -7.6154977e-32 -0 -7.6154977e-31)
(2.3751493e-31 0 0 2.3751493e-31 0 -4.7502987e-31)
(6.5981779e-31 0 -2.4163249e-37 -3.299089e-31 -0 -3.299089e-31)
(1.7222542e-30 -1.0333525e-30 2.5228332e-37 6.8890166e-31 -7.5684997e-37 -2.4111558e-30)
(2.7100963e-31 0 0 2.6769304e-31 -5.1821587e-32 -5.3870267e-31)
(7.4828869e-31 0 3.5862772e-32 -3.7586576e-31 0 -3.7242293e-31)
(1.922225e-30 -1.1526268e-30 -3.6884058e-32 7.660573e-31 1.1065217e-31 -2.6882823e-30)
(3.4249596e-30 -1.1738597e-30 7.5127166e-32 -1.2740854e-30 -5.6345374e-32 -2.1508741e-30)
(2.9576608e-31 -0 -0 2.9576608e-31 1.0831277e-37 -5.9153216e-31)
(1.0804002e-30 -5.8930922e-31 0 -9.8218203e-32 0 -9.8218203e-31)
(2.896741e-31 0 0 2.896741e-31 0 -5.7934819e-31)
(2.8534325e-31 0 0 2.7154414e-31 -1.0780552e-31 -5.5688739e-31)
(2.6766902e-31 0 0 2.6766902e-31 0 -5.3533804e-31)
(3.1442269e-30 -5.0368802e-31 7.0418001e-31 -3.0144817e-30 -4.2250801e-30 -1.2974521e-31)
(4.4510627e-30 -1.4126555e-30 2.1077805e-30 -3.9578311e-30 -4.2155609e-30 -4.9323163e-31)
(1.19723e-29 0 0 -1.3211718e-29 -1.6440715e-29 1.2394175e-30)