/*--------------------------------*- C++ -*----------------------------------*\
| =========                 |                                                 |
| \\      /  F ield         | OpenFOAM: The Open Source CFD Toolbox           |
|  \\    /   O peration     | Version:  2.4.0                                 |
|   \\  /    A nd           | Web:      www.OpenFOAM.org                      |
|    \\/     M anipulation  |                                                 |
\*---------------------------------------------------------------------------*/
FoamFile
{
    version     2.0;
    format      ascii;
    class       volSymmTensorField;
    location    "0";
    object      T04;
}
// * * * * * * * * * * * * * * * * * * * * * * * * * * * * * * * * * * * * * //

dimensions      [0 0 0 0 0 0 0];

internalField   nonuniform List<symmTensor> 
32000
(
(-0.0080078882 0 0 -0.0080078882 0 0.016015776)
(-0.0080083303 0 0 -0.0080083303 -1.4937202e-17 0.016016661)
(-0.0079962654 0 0 -0.0079962654 -1.4905834e-17 0.015992531)
(-0.0079112028 0 0 -0.0079112028 -7.3753908e-18 0.015822406)
(-0.0076562685 0 0 -0.0076562685 -7.1669381e-18 0.015312537)
(-0.0071414082 0 0 -0.0071414082 -6.6780236e-18 0.014282816)
(-0.0063607507 0 0 -0.0063607507 -5.9782423e-18 0.012721501)
(-0.0054927825 0 0 -0.0054927825 0 0.010985565)
(-0.0047943342 0 0 -0.0047943342 -4.3363945e-18 0.0095886684)
(-0.0042774921 0 0 -0.0042774921 -3.9379052e-18 0.0085549842)
(-0.0039038991 0 0 -0.0039038991 0 0.0078077982)
(-0.003638844 0 0 -0.003638844 -8.3223975e-26 0.0072776879)
(-0.0034523228 0 0 -0.0034523228 -8.4311977e-20 0.0069046456)
(-0.0033285836 0 0 -0.0033285836 1.5704326e-25 0.0066571673)
(-0.0032566982 0 0 -0.0032566982 0 0.0065133964)
(-0.0032327371 0 0 -0.0032327371 8.0796297e-20 0.0064654742)
(-0.0032550244 0 0 -0.0032550244 -6.1173986e-18 0.0065100487)
(-0.0033134293 0 0 -0.0033134293 -6.2122128e-18 0.0066268586)
(-0.0033747114 0 0 -0.0033747114 -3.0675099e-18 0.0067494227)
(-0.003430968 0 0 -0.003430968 -3.1130143e-18 0.0068619361)
(-0.0034822181 0 0 -0.0034822181 -1.9405982e-24 0.0069644361)
(-0.0035278391 0 0 -0.0035278391 1.3047295e-24 0.0070556783)
(-0.003567207 0 0 -0.003567207 8.6129697e-20 0.0071344141)
(-0.0036005843 0 0 -0.0036005843 8.665701e-20 0.0072011687)
(-0.0036266882 0 0 -0.0036266882 8.7068981e-20 0.0072533764)
(-0.003646218 0 0 -0.003646218 0 0.007292436)
(-0.0036593125 0 0 -0.0036593125 -8.758049e-20 0.0073186249)
(-0.0036812447 0 0 -0.0036812447 1.341619e-24 0.0073624894)
(-0.0037251264 0 0 -0.0037251264 -8.8615029e-20 0.0074502529)
(-0.0037930821 0 0 -0.0037930821 8.968377e-20 0.0075861641)
(-0.0038870561 0 0 -0.0038870561 9.113212e-20 0.0077741121)
(-0.0040096676 0 0 -0.0040096676 -9.3043729e-20 0.0080193351)
(-0.004164383 0 0 -0.004164383 0 0.0083287661)
(-0.0043556925 0 0 -0.0043556925 3.0016327e-24 0.0087113849)
(-0.0045898177 0 0 -0.0045898177 -5.3192694e-18 0.0091796353)
(-0.0048708292 0 0 -0.0048708292 -5.6058721e-18 0.0097416585)
(-0.0051902211 0 0 -0.0051902211 -5.4344138e-18 0.010380442)
(-0.005530161 0 0 -0.005530161 -5.8073811e-18 0.011060322)
(-0.00588646 0 0 -0.00588646 -6.060847e-20 0.01177292)
(-0.0062536221 0 0 -0.0062536221 6.3296928e-20 0.012507244)
(-0.0066220865 0 0 -0.0066220865 -4.0265145e-24 0.013244173)
(-0.0069796072 0 0 -0.0069796072 6.8556091e-20 0.013959214)
(-0.0073107819 0 0 -0.0073107819 -8.6586502e-24 0.014621564)
(-0.0075971533 0 0 -0.0075971533 -3.6486563e-20 0.015194307)
(-0.0078196339 0 0 -0.0078196339 3.7287921e-20 0.015639268)
(-0.0079609136 0 0 -0.0079609136 -1.6975294e-17 0.015921827)
(-0.0080076728 0 0 -0.0080076728 -1.7097541e-17 0.016015346)
(-0.0080083333 0 0 -0.0080083333 5.3930634e-34 0.016016667)
(-0.0080083333 0 0 -0.0080083333 4.632632e-24 0.016016667)
(-0.0080083333 0 0 -0.0080083333 -4.6326096e-24 0.016016667)
(-0.0080083333 0 0 -0.0080083333 4.632658e-24 0.016016667)
(-0.0080083333 0 0 -0.0080083333 -4.6326111e-24 0.016016667)
(-0.0080083333 0 0 -0.0080083333 4.6326407e-24 0.016016667)
(-0.0080083333 0 0 -0.0080083333 -4.6325945e-24 0.016016667)
(-0.0080083333 0 0 -0.0080083333 0 0.016016667)
(-0.0080083333 0 0 -0.0080083333 0 0.016016667)
(-0.0080083333 0 0 -0.0080083333 -1.7060297e-17 0.016016667)
(-0.0080083333 0 0 -0.0080083333 -1.7086914e-17 0.016016667)
(-0.0080083333 0 0 -0.0080083333 8.5268225e-18 0.016016667)
(-0.0080083333 0 0 -0.0080083333 8.5394853e-18 0.016016667)
(-0.0080083333 0 0 -0.0080083333 1.7061544e-17 0.016016667)
(-0.0080083333 0 0 -0.0080083333 1.708567e-17 0.016016667)
(-0.0080083333 0 0 -0.0080083333 0 0.016016667)
(-0.0080083333 0 0 -0.0080083333 0 0.016016667)
(-0.0080083333 0 0 -0.0080083333 2.3163057e-24 0.016016667)
(-0.0080083333 0 0 -0.0080083333 -4.6326581e-24 0.016016667)
(-0.0080083333 0 0 -0.0080083333 4.6326108e-24 0.016016667)
(-0.0080083333 0 0 -0.0080083333 -8.5282108e-18 0.016016667)
(-0.0080083333 0 0 -0.0080083333 -1.7073755e-17 0.016016667)
(-0.0080083333 0 0 -0.0080083333 -8.5452432e-18 0.016016667)
(-0.0080083333 0 0 -0.0080083333 -2.3163213e-24 0.016016667)
(-0.0080083333 0 0 -0.0080083333 0 0.016016667)
(-0.0080083333 0 0 -0.0080083333 -2.3163318e-24 0.016016667)
(-0.0080083333 0 0 -0.0080083333 2.3162946e-24 0.016016667)
(-0.0080083333 0 0 -0.0080083333 0 0.016016667)
(-0.0080083333 0 0 -0.0080083333 5.3930686e-34 0.016016667)
(-0.0080083333 0 0 -0.0080083333 8.5295991e-18 0.016016667)
(-0.0080083333 0 0 -0.0080083333 8.5367155e-18 0.016016667)
(-0.0080083333 0 0 -0.0080083333 -2.3163209e-24 0.016016667)
(-0.0080083333 0 0 -0.0080083333 2.3163212e-24 0.016016667)
(-0.0080083333 0 0 -0.0080083333 -2.3163857e-24 0.016016667)
(-0.0080083333 0 0 -0.0080083333 -8.5303726e-18 0.016016667)
(-0.0080083333 0 0 -0.0080083333 -8.53594e-18 0.016016667)
(-0.0080083333 0 0 -0.0080083333 1.1581968e-24 0.016016667)
(-0.0080083333 0 0 -0.0080083333 -1.1580629e-24 0.016016667)
(-0.0080083333 0 0 -0.0080083333 0 0.016016667)
(-0.0080083333 0 0 -0.0080083333 -1.1581967e-24 0.016016667)
(-0.0080083333 0 0 -0.0080083333 1.1580629e-24 0.016016667)
(-0.0080083333 0 0 -0.0080083333 0 0.016016667)
(-0.0080083333 0 0 -0.0080083333 0 0.016016667)
(-0.0080083333 0 0 -0.0080083333 -5.7910327e-25 0.016016667)
(-0.0080083333 0 0 -0.0080083333 -8.5392109e-18 0.016016667)
(-0.0080083333 0 0 -0.0080083333 -8.5416878e-18 0.016016667)
(-0.0080083333 0 0 -0.0080083333 5.7910321e-25 0.016016667)
(-0.0080083333 0 0 -0.0080083333 0 0.016016667)
(-0.0080083333 0 0 -0.0080083333 0 0.016016667)
(-0.0080083333 0 0 -0.0080083333 -8.5399855e-18 0.016016667)
(-0.0080083333 0 0 -0.0080083333 -8.5409136e-18 0.016016667)
(-0.0080083333 0 0 -0.0080083333 0 0.016016667)
(-0.0080083333 0 0 -0.0080083333 0 0.016016667)
(-0.0080083333 0 0 -0.0080083333 0 0.016016667)
(-0.0080083333 0 0 -0.0080083333 0 0.016016667)
(-0.0080083333 0 0 -0.0080083333 8.5409136e-18 0.016016667)
(-0.0080083333 0 0 -0.0080083333 8.5399858e-18 0.016016667)
(-0.0080083333 0 0 -0.0080083333 -2.8951436e-25 0.016016667)
(-0.0080083333 0 0 -0.0080083333 0 0.016016667)
(-0.0080083333 0 0 -0.0080083333 -8.5342389e-18 0.016016667)
(-0.0080083333 0 0 -0.0080083333 9.6137491e-21 0.016016667)
(-0.0080083333 0 0 -0.0080083333 8.5392114e-18 0.016016667)
(-0.0080083333 0 0 -0.0080083333 -1.1582065e-24 0.016016667)
(-0.0080083333 0 0 -0.0080083333 1.1581066e-24 0.016016667)
(-0.0080083333 0 0 -0.0080083333 0 0.016016667)
(-0.0080083333 0 0 -0.0080083333 1.1580629e-24 0.016016667)
(-0.0080083333 0 0 -0.0080083333 -2.3163935e-24 0.016016667)
(-0.0080083333 0 0 -0.0080083333 1.15821e-24 0.016016667)
(-0.0080083333 0 0 -0.0080083333 0 0.016016667)
(-0.0080083333 0 0 -0.0080083333 -1.1581968e-24 0.016016667)
(-0.0080083333 0 0 -0.0080083333 1.15821e-24 0.016016667)
(-0.0080083333 0 0 -0.0080083333 1.1580629e-24 0.016016667)
(-0.0080083333 0 0 -0.0080083333 -1.1581968e-24 0.016016667)
(-0.0080083333 0 0 -0.0080083333 8.5364013e-18 0.016016667)
(-0.0080083333 0 0 -0.0080083333 8.5299137e-18 0.016016667)
(-0.0080083333 0 0 -0.0080083333 -8.5367157e-18 0.016016667)
(-0.0080083333 0 0 -0.0080083333 -8.5295967e-18 0.016016667)
(-0.0080083333 0 0 -0.0080083333 -2.316126e-24 0.016016667)
(-0.0080083333 0 0 -0.0080083333 8.537177e-18 0.016016667)
(-0.0080083333 0 0 -0.0080083333 8.5291378e-18 0.016016667)
(-0.0080083333 0 0 -0.0080083333 -1.708227e-17 0.016016667)
(-0.0080083333 0 0 -0.0080083333 -1.7064943e-17 0.016016667)
(-0.0080083333 0 0 -0.0080083333 0 0.016016667)
(-0.0080083333 0 0 -0.0080083333 8.5452473e-18 0.016016667)
(-0.0080083333 0 0 -0.0080083333 8.535651e-18 0.016016667)
(-0.0080083333 0 0 -0.0080083333 0 0.016016667)
(-0.0080083333 0 0 -0.0080083333 2.3162872e-24 0.016016667)
(-0.0080083333 0 0 -0.0080083333 -2.3163533e-24 0.016016667)
(-0.0080083333 0 0 -0.0080083333 8.5515894e-18 0.016016667)
(-0.0080083333 0 0 -0.0080083333 8.5293095e-18 0.016016667)
(-0.0080083333 0 0 -0.0080083333 0 0.016016667)
(-0.0080083333 0 0 -0.0080083333 -6.0315869e-21 0.016016667)
(-0.0080083333 0 0 -0.0080083333 6.0315524e-21 0.016016667)
(-0.0080083333 0 0 -0.0080083333 0 0.016016667)
(-0.0080083333 0 0 -0.0080083333 4.6326e-24 0.016016667)
(-0.0080083333 0 0 -0.0080083333 5.3930234e-34 0.016016667)
(-0.0080083333 0 0 -0.0080083333 -4.6327066e-24 0.016016667)
(-0.0080083333 0 0 -0.0080083333 -4.6326008e-24 0.016016667)
(-0.0080083333 0 0 -0.0080083333 4.632571e-24 0.016016667)
(-0.0080083333 0 0 -0.0080083333 0 0.016016667)
(-0.0080083333 0 0 -0.0080083333 4.6326016e-24 0.016016667)
(-0.0080083333 0 0 -0.0080083333 -4.6325702e-24 0.016016667)
(-0.0080083333 0 0 -0.0080083333 4.6327067e-24 0.016016667)
(-0.0080083333 0 0 -0.0080083333 -4.6326024e-24 0.016016667)
(-0.0080083333 0 0 -0.0080083333 0 0.016016667)
(-0.0080083333 0 0 -0.0080083333 4.6328272e-24 0.016016667)
(-0.0080076743 0 0 -0.0080076743 1.1811992e-21 0.016015349)
(-0.0079608995 0 0 -0.0079608995 -1.8894258e-20 0.015921799)
(-0.0078195376 0 0 -0.0078195376 0 0.015639075)
(-0.007597541 0 0 -0.007597541 -4.4542703e-24 0.015195082)
(-0.0073104559 0 0 -0.0073104559 0 0.014620912)
(-0.0069791096 0 0 -0.0069791096 4.1840594e-24 0.013958219)
(-0.0066231872 0 0 -0.0066231872 7.2471658e-21 0.013246374)
(-0.0062533875 0 0 -0.0062533875 4.1284457e-22 0.012506775)
(-0.0058859415 0 0 -0.0058859415 -6.7665964e-20 0.011771883)
(-0.0055293143 0 0 -0.0055293143 0 0.011058629)
(-0.0051903981 0 0 -0.0051903981 4.8496646e-20 0.010380796)
(-0.0048728005 0 0 -0.0048728005 -1.0606153e-19 0.009745601)
(-0.0045895986 0 0 -0.0045895986 6.2888529e-21 0.0091791972)
(-0.00435516 0 0 -0.00435516 0 0.0087103199)
(-0.0041639642 0 0 -0.0041639642 -2.9123063e-24 0.0083279285)
(-0.0040092433 0 0 -0.0040092433 5.678566e-24 0.0080184867)
(-0.0038867157 0 0 -0.0038867157 -2.7811349e-24 0.0077734314)
(-0.0037926777 0 0 -0.0037926777 0 0.0075853554)
(-0.0037246765 0 0 -0.0037246765 8.8608963e-20 0.0074493531)
(-0.0036809468 0 0 -0.0036809468 3.3901314e-18 0.0073618936)
(-0.0036593 0 0 -0.0036593 3.3672161e-18 0.0073186001)
(-0.0036466304 0 0 -0.0036466304 -1.3333862e-24 0.0072932609)
(-0.0036298389 0 0 -0.0036298389 0 0.0072596777)
(-0.0036002536 0 0 -0.0036002536 -1.3222245e-24 0.0072005072)
(-0.0035668821 0 0 -0.0035668821 3.301905e-18 0.0071337642)
(-0.003527605 0 0 -0.003527605 3.2673773e-18 0.00705521)
(-0.0034820852 0 0 -0.0034820852 1.2937021e-24 0.0069641704)
(-0.0034307857 0 0 -0.0034307857 0 0.0068615715)
(-0.0033746152 0 0 -0.0033746152 0 0.0067492303)
(-0.0033133344 0 0 -0.0033133344 0 0.0066266688)
(-0.0032549585 0 0 -0.0032549585 8.2098606e-20 0.006509917)
(-0.0032326821 0 0 -0.0032326821 -2.0262761e-22 0.0064653642)
(-0.003256657 0 0 -0.003256657 -2.0152809e-22 0.006513314)
(-0.0033283616 0 0 -0.0033283616 8.1785234e-20 0.0066567232)
(-0.0034522266 0 0 -0.0034522266 -1.6080916e-25 0.0069044532)
(-0.0036386695 0 0 -0.0036386695 8.7269012e-20 0.0072773391)
(-0.0039034422 0 0 -0.0039034422 1.6317673e-22 0.0078068844)
(-0.0042769787 0 0 -0.0042769787 9.7313111e-20 0.0085539574)
(-0.0047953543 0 0 -0.0047953543 -3.4501258e-22 0.0095907085)
(-0.0054940638 0 0 -0.0054940638 5.1019577e-18 0.010988128)
(-0.0063599827 0 0 -0.0063599827 5.9789928e-18 0.012719965)
(-0.0071410558 0 0 -0.0071410558 -6.9737601e-20 0.014282112)
(-0.0076565299 0 0 -0.0076565299 -3.6707017e-20 0.01531306)
(-0.0079111873 0 0 -0.0079111873 1.4348273e-25 0.015822375)
(-0.0079962615 0 0 -0.0079962615 -9.4780268e-21 0.015992523)
(-0.0080083303 0 0 -0.0080083303 1.4936271e-17 0.016016661)
(-0.0080078882 0 0 -0.0080078882 1.4934855e-17 0.016015776)
(-1.9888039e-46 0 0 3.9776078e-46 0 -1.9888039e-46)
(-9.3230339e-30 0 0 1.6083171e-29 8.0692921e-30 -6.7601374e-30)
(-3.4706698e-29 0 0 6.6849423e-29 -1.6136516e-29 -3.2142725e-29)
(-1.9026794e-29 0 0 3.8053588e-29 0 -1.9026794e-29)
(-5.6169835e-30 0 0 8.0857433e-31 -8.1846785e-30 4.8084091e-30)
(-2.054929e-30 0 0 4.1098579e-30 0 -2.054929e-30)
(-2.142575e-30 0 0 4.2851501e-30 0 -2.142575e-30)
(0 0 0 0 0 0)
(-4.3701257e-30 0 0 1.5117324e-30 -6.5205155e-30 2.8583933e-30)
(-3.1058201e-30 0 0 2.8431117e-30 4.4765106e-30 2.6270841e-31)
(-2.8963818e-31 0 0 -2.8963818e-31 -5.3034335e-38 5.7927637e-31)
(-2.6529989e-30 0 0 -2.6493784e-30 1.6971486e-31 5.3023773e-30)
(-2.9697186e-31 0 0 -2.9333753e-31 5.6786162e-32 5.9030939e-31)
(-1.5222949e-29 0 0 3.0445899e-29 0 -1.5222949e-29)
(-1.5132364e-29 0 0 2.940026e-29 6.2046e-30 -1.4267896e-29)
(-6.6798802e-44 0 0 1.335976e-43 0 -6.6798802e-44)
(-6.291224e-30 0 0 1.2582448e-29 0 -6.291224e-30)
(-6.049568e-30 0 0 1.2099136e-29 0 -6.049568e-30)
(-1.5581781e-30 0 0 2.3740687e-30 -1.7084664e-30 -8.1589063e-31)
(-2.2842284e-30 0 0 1.718364e-30 3.3775376e-30 5.6586447e-31)
(-9.3579847e-34 0 0 1.8715969e-33 0 -9.3579847e-34)
(-2.2019261e-31 0 0 -2.2019261e-31 6.4509554e-37 4.4038522e-31)
(-8.7104181e-34 0 0 1.7420836e-33 0 -8.7104181e-34)
(-2.0660821e-31 0 0 -2.0407984e-31 3.9506358e-32 4.1068805e-31)
(-1.9023413e-43 0 0 3.8046826e-43 0 -1.9023413e-43)
(-1.9369925e-31 0 0 -1.9369925e-31 -5.6747826e-37 3.8739849e-31)
(-7.5429987e-31 0 0 -7.519851e-31 -7.2337611e-32 1.506285e-30)
(-6.9817548e-43 0 0 1.396351e-42 0 -6.9817548e-43)
(-1.7799946e-31 0 0 -1.7582099e-31 -3.4037513e-32 3.5382045e-31)
(-7.0116262e-34 0 0 1.4023252e-33 0 -7.0116262e-34)
(-6.7481675e-34 0 0 1.3496335e-33 0 -6.7481675e-34)
(-1.5881495e-31 0 0 -1.568714e-31 3.0368084e-32 3.1568635e-31)
(-1.5143364e-31 0 0 -1.5143364e-31 -8.8730651e-37 3.0286729e-31)
(-1.4456677e-31 0 0 -1.4456677e-31 0 2.8913354e-31)
(-2.0950234e-30 0 0 2.5370292e-30 -2.7671041e-30 -4.4200576e-31)
(-1.5457162e-30 0 0 3.0914324e-30 0 -1.5457162e-30)
(-1.3550167e-30 0 0 2.3362674e-30 -1.1745963e-30 -9.8125069e-31)
(-1.0857957e-29 0 0 2.1715914e-29 0 -1.0857957e-29)
(-5.3546456e-30 0 0 9.3447259e-30 4.4786441e-30 -3.9900803e-30)
(-5.5235758e-30 0 0 9.7367099e-30 4.4718804e-30 -4.2131341e-30)
(-6.7402217e-30 0 0 8.4247773e-30 8.7560934e-30 -1.6845556e-30)
(-4.084841e-31 0 0 -4.0817043e-31 -1.9603414e-32 8.1665453e-31)
(-5.2804323e-30 0 0 9.3667064e-30 4.1822242e-30 -4.0862742e-30)
(-5.2926237e-30 0 0 9.4140289e-30 4.1502656e-30 -4.1214052e-30)
(-9.8669647e-35 0 0 1.9733929e-34 0 -9.8669647e-35)
(-4.9834339e-30 0 0 9.9668679e-30 0 -4.9834339e-30)
(-6.5023507e-30 0 0 8.3980851e-30 -8.2849616e-30 -1.8957344e-30)
(-1.5362269e-30 0 0 -1.5362269e-30 2.6197317e-46 3.0724538e-30)
(-3.6626911e-43 0 0 7.3253822e-43 0 -3.6626911e-43)
(-3.8405729e-31 0 0 -3.8405729e-31 1.1251678e-36 7.6811457e-31)
(-7.9422845e-62 0 0 1.5884569e-61 0 -7.9422845e-62)
(-2.7765872e-30 0 0 9.4448409e-31 -4.1411672e-30 1.8321032e-30)
(-1.6289993e-30 0 0 2.1058113e-30 -2.0744159e-30 -4.7681196e-31)
(-3.8405478e-31 0 0 -3.8405478e-31 0 7.6810956e-31)
(-3.8406257e-31 0 0 -3.8406257e-31 0 7.6812514e-31)
(-3.8406279e-31 0 0 -3.8406279e-31 0 7.6812559e-31)
(-5.3673029e-30 0 0 9.5824253e-30 4.1502753e-30 -4.2151224e-30)
(-5.3508697e-30 0 0 9.5495669e-30 -4.1434133e-30 -4.1986972e-30)
(-1.2446526e-30 0 0 2.4893053e-30 0 -1.2446526e-30)
(-1.2407384e-30 0 0 2.4814768e-30 0 -1.2407384e-30)
(-4.9588921e-30 0 0 9.9177841e-30 0 -4.9588921e-30)
(-3.8406828e-31 0 0 -3.8405178e-31 4.3612936e-33 7.6812006e-31)
(-3.6626318e-43 0 0 7.3252635e-43 0 -3.6626318e-43)
(0 0 0 0 0 0)
(-3.8405759e-31 0 0 -3.8405759e-31 0 7.6811518e-31)
(-3.8406532e-31 0 0 -3.8406532e-31 0 7.6813064e-31)
(-3.4565174e-30 0 0 -3.4565174e-30 1.6877526e-36 6.9130348e-30)
(-1.6282803e-30 0 0 2.1043886e-30 2.0738073e-30 -4.7610832e-31)
(-3.1054817e-29 0 0 6.2109633e-29 0 -3.1054817e-29)
(-1.990286e-29 0 0 3.980572e-29 0 -1.990286e-29)
(-3.8406276e-31 0 0 -3.8406276e-31 0 7.6812552e-31)
(-1.5362191e-30 0 0 -1.5362191e-30 -5.2394367e-46 3.0724382e-30)
(-3.8406624e-31 0 0 -3.8406624e-31 0 7.6813247e-31)
(-4.9637806e-63 0 0 9.9275613e-63 0 -4.9637806e-63)
(-3.8406533e-31 0 0 -3.8406533e-31 -5.6259569e-37 7.6813065e-31)
(-3.8405747e-31 0 0 -3.8405747e-31 -5.6258418e-37 7.6811493e-31)
(-1.6278526e-30 0 0 2.1035235e-30 2.0734569e-30 -4.756709e-31)
(-1.2415958e-30 0 0 2.4831915e-30 0 -1.2415958e-30)
(-9.1567668e-44 0 0 1.8313534e-43 0 -9.1567668e-44)
(-3.6627077e-43 0 0 7.3254154e-43 0 -3.6627077e-43)
(-3.8408412e-31 0 0 -3.8408412e-31 5.6262323e-37 7.6816825e-31)
(-1.6275504e-30 0 0 2.1031069e-30 2.0730882e-30 -4.7555651e-31)
(-1.6259305e-30 0 0 2.0995747e-30 -2.0719191e-30 -4.7364417e-31)
(-1.5363469e-30 0 0 -1.5363469e-30 -5.6262702e-37 3.0726937e-30)
(-1.1561367e-29 0 0 2.1970741e-29 6.2152057e-30 -1.0409373e-29)
(-1.1190258e-29 0 0 2.2380515e-29 0 -1.1190258e-29)
(-3.8408669e-31 0 0 -3.8408669e-31 -2.8131349e-37 7.6817337e-31)
(-1.5359917e-30 0 0 -1.5359917e-30 5.6249697e-37 3.0719835e-30)
(-4.9684839e-30 0 0 9.9369679e-30 0 -4.9684839e-30)
(-4.9726837e-30 0 0 9.9453673e-30 0 -4.9726837e-30)
(0 0 0 0 0 0)
(-2.7815726e-30 0 0 9.5403265e-31 4.1494367e-30 1.8275399e-30)
(-1.2444364e-30 0 0 2.4888727e-30 0 -1.2444364e-30)
(0 0 0 0 0 0)
(-3.8409279e-31 0 0 -3.8409279e-31 0 7.6818557e-31)
(0 0 0 0 0 0)
(-1.2449624e-30 0 0 2.4899247e-30 0 -1.2449624e-30)
(-1.6287681e-30 0 0 2.1052576e-30 -2.0742801e-30 -4.7648953e-31)
(-3.8399434e-31 0 0 -3.8399434e-31 -1.7577866e-38 7.6798868e-31)
(-1.5363718e-30 0 0 -1.5363718e-30 3.5156175e-38 3.0727436e-30)
(-5.3303603e-54 0 0 1.0660721e-53 0 -5.3303603e-54)
(0 0 0 0 0 0)
(-1.2446753e-30 0 0 2.4893507e-30 0 -1.2446753e-30)
(-3.8409392e-31 0 0 -3.840912e-31 -1.7715174e-33 7.6818513e-31)
(-1.2424547e-30 0 0 2.4849095e-30 0 -1.2424547e-30)
(-3.840928e-31 0 0 -3.840928e-31 -1.4065898e-37 7.6818559e-31)
(-1.2423596e-30 0 0 2.4847192e-30 0 -1.2423596e-30)
(-3.8399474e-31 0 0 -3.8399354e-31 1.174059e-33 7.6798828e-31)
(-1.2452017e-30 0 0 2.4904035e-30 0 -1.2452017e-30)
(-2.2893737e-44 0 0 4.5787474e-44 0 -2.2893737e-44)
(-2.2889789e-44 0 0 4.5779578e-44 0 -2.2889789e-44)
(-2.2893878e-44 0 0 4.5787757e-44 0 -2.2893878e-44)
(-3.8399793e-31 0 0 -3.8399793e-31 0 7.6799586e-31)
(0 0 0 0 0 0)
(-2.2893875e-44 0 0 4.5787751e-44 0 -2.2893875e-44)
(-3.8399795e-31 0 0 -3.8399795e-31 -2.812485e-37 7.679959e-31)
(-3.8408671e-31 0 0 -3.8408671e-31 0 7.6817342e-31)
(-3.8409545e-31 0 0 -3.8409545e-31 5.6263982e-37 7.681909e-31)
(-3.8399797e-31 0 0 -3.8399797e-31 0 7.6799594e-31)
(-9.1573414e-44 0 0 1.8314683e-43 0 -9.1573414e-44)
(-1.6257867e-30 0 0 2.0992872e-30 2.071799e-30 -4.7350049e-31)
(-1.6276943e-30 0 0 2.1033946e-30 -2.0732081e-30 -4.7570032e-31)
(-1.2415957e-30 0 0 2.4831914e-30 0 -1.2415957e-30)
(-1.6278881e-30 0 0 2.1034902e-30 -2.0735513e-30 -4.7560205e-31)
(-3.8399801e-31 0 0 -3.8399801e-31 -2.6193316e-46 7.6799602e-31)
(-1.6255401e-30 0 0 2.0988198e-30 -2.0715773e-30 -4.7327974e-31)
(-1.2439353e-30 0 0 2.4878706e-30 0 -1.2439353e-30)
(-4.9696736e-30 0 0 9.9393471e-30 0 -4.9696736e-30)
(-4.9803767e-30 0 0 9.9607535e-30 0 -4.9803767e-30)
(-3.8409526e-31 0 0 -3.8409526e-31 -5.6263954e-37 7.6819052e-31)
(-1.1578766e-29 0 0 2.2005537e-29 6.2200418e-30 -1.0426771e-29)
(-1.1185895e-29 0 0 2.237179e-29 0 -1.1185895e-29)
(-3.8405529e-31 0 0 -3.8405529e-31 -5.6258099e-37 7.6811057e-31)
(0 0 0 0 0 0)
(-3.8407336e-31 0 0 -3.8407336e-31 -1.3099226e-46 7.6814673e-31)
(-1.2430971e-30 0 0 2.4861942e-30 0 -1.2430971e-30)
(-1.2465404e-30 0 0 2.4930808e-30 0 -1.2465404e-30)
(0 0 0 0 0 0)
(-3.8405556e-31 0 0 -3.8405556e-31 -1.1251628e-36 7.6811111e-31)
(-3.8405117e-31 0 0 -3.8405117e-31 2.6196938e-46 7.6810234e-31)
(-1.5362935e-30 0 0 -1.5362935e-30 0 3.072587e-30)
(-3.8405569e-31 0 0 -3.8405569e-31 0 7.6811138e-31)
(-4.9637433e-63 0 0 9.9274865e-63 0 -4.9637433e-63)
(-4.9789872e-30 0 0 9.9579743e-30 0 -4.9789872e-30)
(-5.3462433e-30 0 0 9.5403191e-30 -4.1414747e-30 -4.1940758e-30)
(-1.5362036e-30 0 0 -1.5362036e-30 -2.2502982e-36 3.0724072e-30)
(-3.8407338e-31 0 0 -3.8407338e-31 1.125215e-36 7.6814676e-31)
(-1.6289955e-30 0 0 2.1058231e-30 2.0744006e-30 -4.7682761e-31)
(-2.7765561e-30 0 0 9.4450314e-31 4.1411239e-30 1.832053e-30)
(-4.9640321e-63 0 0 9.9280643e-63 0 -4.9640321e-63)
(-3.8405609e-31 0 0 -3.8405609e-31 1.1251643e-36 7.6811219e-31)
(-3.8405062e-31 0 0 -3.8405062e-31 -1.1251483e-36 7.6810123e-31)
(-5.3648052e-30 0 0 9.5773304e-30 -4.1494005e-30 -4.2125252e-30)
(-5.3405537e-30 0 0 9.5296484e-30 -4.1379255e-30 -4.1890947e-30)
(-3.8348319e-31 0 0 -3.8340957e-31 -9.2030076e-33 7.6689276e-31)
(-3.8550406e-31 0 0 -3.8550406e-31 -1.1294064e-36 7.7100813e-31)
(-3.9035979e-31 0 0 -3.9028481e-31 9.3703223e-33 7.806446e-31)
(-3.9810052e-31 0 0 -3.9810052e-31 1.1663101e-36 7.9620105e-31)
(-1.0455842e-34 0 0 2.0911684e-34 0 -1.0455842e-34)
(-4.2131685e-31 0 0 -4.2099332e-31 -2.0219266e-32 8.4231017e-31)
(-5.7842234e-30 0 0 1.0257931e-29 4.5851381e-30 -4.473708e-30)
(-5.4472794e-30 0 0 1.0894559e-29 0 -5.4472794e-30)
(-4.7556792e-31 0 0 -4.7520274e-31 -2.282281e-32 9.5077066e-31)
(-4.9885054e-31 0 0 -4.9731954e-31 4.784212e-32 9.9617008e-31)
(-1.3146475e-31 0 0 -1.298558e-31 -2.5139026e-32 2.6132055e-31)
(-5.0236803e-30 0 0 1.0047361e-29 0 -5.0236803e-30)
(-5.3049583e-30 0 0 1.0176156e-29 -2.5913516e-30 -4.8711974e-30)
(-1.5206289e-31 0 0 -1.5020197e-31 -2.9076976e-32 3.0226486e-31)
(0 0 0 0 0 0)
(-6.5907518e-31 0 0 -6.5907518e-31 0 1.3181504e-30)
(-1.719005e-31 0 0 -1.697968e-31 3.2870259e-32 3.416973e-31)
(-7.2616446e-34 0 0 1.4523289e-33 0 -7.2616446e-34)
(-1.2934456e-30 0 0 2.037785e-30 1.3524789e-30 -7.4433941e-31)
(-1.1449954e-30 0 0 2.2899909e-30 0 -1.1449954e-30)
(-1.944908e-31 0 0 -1.9211064e-31 3.7189903e-32 3.8660144e-31)
(0 0 0 0 0 0)
(-8.2313138e-31 0 0 -8.2313138e-31 -1.2057589e-36 1.6462628e-30)
(-1.4895808e-30 0 0 2.3411152e-30 1.5633814e-30 -8.5153444e-31)
(-1.2525921e-30 0 0 2.5051842e-30 0 -1.2525921e-30)
(-2.2846493e-31 0 0 -2.2846493e-31 0 4.5692986e-31)
(-2.3751493e-31 0 0 -2.3751493e-31 0 4.7502987e-31)
(-5.8992308e-44 0 0 1.1798462e-43 0 -5.8992308e-44)
(-1.0333525e-30 0 0 -1.0333525e-30 7.5684997e-37 2.066705e-30)
(-2.7100963e-31 0 0 -2.6769304e-31 5.1821587e-32 5.3870267e-31)
(-1.1476087e-33 0 0 2.2952174e-33 0 -1.1476087e-33)
(-1.1538071e-30 0 0 -1.1502662e-30 -1.1065217e-31 2.3040734e-30)
(-2.9466697e-31 0 0 -2.9106086e-31 5.6345374e-32 5.8572782e-31)
(-2.9576608e-31 0 0 -2.9576608e-31 -1.0831277e-37 5.9153216e-31)
(-2.9465461e-31 0 0 -2.9465461e-31 0 5.8930922e-31)
(-2.896741e-31 0 0 -2.896741e-31 0 5.7934819e-31)
(-2.8534325e-31 0 0 -2.7154414e-31 1.0780552e-31 5.5688739e-31)
(-2.6766902e-31 0 0 -2.6766902e-31 0 5.3533804e-31)
(-2.9763309e-30 0 0 2.9305337e-30 4.2250801e-30 4.5797209e-32)
(-3.0384072e-30 0 0 3.2515033e-30 4.2155609e-30 -2.1309614e-31)
(-1.19723e-29 0 0 1.3211718e-29 1.6440715e-29 -1.2394175e-30)
(-8.4798203e-30 0 0 1.6959641e-29 0 -8.4798203e-30)
(-8.5790394e-31 0 0 -8.5790394e-31 1.570869e-37 1.7158079e-30)
(-8.5470994e-31 0 0 -8.5469969e-31 -5.1283174e-33 1.7094096e-30)
(-9.3237804e-30 0 0 1.6084949e-29 -8.0692445e-30 -6.7611687e-30)
(-9.3220256e-30 0 0 1.6081357e-29 8.0685254e-30 -6.7593315e-30)
(0 0 0 0 0 0)
(-7.4249602e-40 0 0 1.484992e-39 0 -7.4249602e-40)
(-8.2956867e-30 0 0 1.4309468e-29 -7.1821182e-30 -6.0137815e-30)
(-7.5342662e-30 0 0 1.5068532e-29 0 -7.5342662e-30)
(-7.7325013e-31 0 0 -7.7310168e-31 -1.8556674e-32 1.5463518e-30)
(-1.907629e-30 0 0 3.8152581e-30 0 -1.907629e-30)
(-1.786561e-30 0 0 3.573122e-30 0 -1.786561e-30)
(-2.689538e-30 0 0 2.6889188e-30 3.8038e-30 6.1919604e-34)
(-2.151949e-30 0 0 3.5891539e-30 -2.0256898e-30 -1.4372049e-30)
(-1.7646321e-30 0 0 3.5292643e-30 0 -1.7646321e-30)
(-1.682226e-30 0 0 3.364452e-30 0 -1.682226e-30)
(-1.0498295e-30 0 0 -1.0466077e-30 1.0068054e-31 2.0964372e-30)
(-2.631797e-31 0 0 -2.631797e-31 -9.6379284e-38 5.2635939e-31)
(-1.3817514e-29 0 0 2.685166e-29 5.6443713e-30 -1.3034146e-29)
(-1.0415173e-33 0 0 2.0830346e-33 0 -1.0415173e-33)
(-6.2044349e-30 0 0 1.1660946e-29 -3.6554002e-30 -5.4565107e-30)
(-1.5665371e-30 0 0 2.4125742e-30 1.693207e-30 -8.4603706e-31)
(-2.2987528e-31 0 0 -2.2987528e-31 3.3673137e-37 4.5975056e-31)
(-2.2107583e-31 0 0 -2.1837034e-31 -4.2273408e-32 4.3944617e-31)
(-8.453868e-31 0 0 -8.453868e-31 0 1.6907736e-30)
(-8.1401717e-31 0 0 -8.1151907e-31 7.8065709e-32 1.6255362e-30)
(-1.9594072e-31 0 0 -1.9594072e-31 0 3.9188145e-31)
(-1.9001647e-31 0 0 -1.8769107e-31 3.6334337e-32 3.7770754e-31)
(0 0 0 0 0 0)
(-7.2706756e-34 0 0 1.4541351e-33 0 -7.2706756e-34)
(-6.5752992e-43 0 0 1.3150598e-42 0 -6.5752992e-43)
(-1.1825349e-30 0 0 1.862161e-30 1.2374183e-30 -6.7962611e-31)
(-1.6437016e-30 0 0 1.3329954e-30 2.4119867e-30 3.1070622e-31)
(-1.5775181e-31 0 0 -1.5775181e-31 0 3.1550361e-31)
(-1.5295618e-31 0 0 -1.5108444e-31 2.9246903e-32 3.0404062e-31)
(0 0 0 0 0 0)
(-1.4075215e-31 0 0 -1.4075215e-31 0 2.8150429e-31)
(-1.3476118e-31 0 0 -1.3476118e-31 7.8961629e-37 2.6952236e-31)
(-5.1513307e-31 0 0 -5.1355229e-31 -4.9400682e-32 1.0286854e-30)
(-1.1032899e-30 0 0 -1.1032899e-30 0 2.2065799e-30)
(-4.774451e-34 0 0 9.548902e-34 0 -4.774451e-34)
(-1.6918392e-42 0 0 3.3836783e-42 0 -1.6918392e-42)
(-4.7251502e-30 0 0 8.1811572e-30 -4.0472153e-30 -3.456007e-30)
(-4.7016258e-30 0 0 8.1888468e-30 -3.9565454e-30 -3.487221e-30)
(-4.8955198e-30 0 0 8.6247923e-30 3.9708974e-30 -3.7292726e-30)
(-4.810727e-30 0 0 8.4966039e-30 3.8689474e-30 -3.6858769e-30)
(-1.4843509e-30 0 0 1.8783557e-30 -1.9148144e-30 -3.9400475e-31)
(-2.4786401e-30 0 0 7.0616079e-31 3.6795337e-30 1.7724793e-30)
(-5.7329205e-30 0 0 7.2963682e-30 7.3705675e-30 -1.5634477e-30)
(-4.7417029e-30 0 0 8.4542001e-30 3.6852812e-30 -3.7124973e-30)
(-5.7501536e-30 0 0 7.4053838e-30 -7.339681e-30 -1.6552302e-30)
(-1.3666117e-30 0 0 -1.3666117e-30 -2.0018726e-36 2.7332233e-30)
(-3.2597158e-43 0 0 6.5194315e-43 0 -3.2597158e-43)
(-1.1073782e-30 0 0 2.2147565e-30 0 -1.1073782e-30)
(-1.0299599e-29 0 0 1.9573779e-29 5.5346853e-30 -9.2741796e-30)
(-4.4325921e-30 0 0 8.8651841e-30 0 -4.4325921e-30)
(-1.1081029e-30 0 0 2.2162058e-30 0 -1.1081029e-30)
(-4.4226663e-30 0 0 8.8453326e-30 0 -4.4226663e-30)
(-1.1118032e-30 0 0 2.2236063e-30 0 -1.1118032e-30)
(-3.4181117e-31 0 0 -3.4181117e-31 1.0013999e-36 6.8362235e-31)
(-4.4156587e-30 0 0 8.8313175e-30 0 -4.4156587e-30)
(-1.1155921e-30 0 0 2.2311843e-30 0 -1.1155921e-30)
(-1.1040472e-30 0 0 2.2080944e-30 0 -1.1040472e-30)
(-3.4180649e-31 0 0 -3.4180649e-31 1.0013862e-36 6.8361298e-31)
(-9.9473977e-30 0 0 1.9894795e-29 0 -9.9473977e-30)
(-1.7678667e-29 0 0 3.5357334e-29 0 -1.7678667e-29)
(-2.4641962e-30 0 0 8.2665615e-31 3.6739909e-30 1.6375401e-30)
(-3.4180424e-31 0 0 -3.4180424e-31 0 6.8360848e-31)
(-1.4423136e-30 0 0 1.8591936e-30 1.8399664e-30 -4.1688001e-31)
(-1.103734e-30 0 0 2.207468e-30 0 -1.103734e-30)
(-3.4181362e-31 0 0 -3.4181362e-31 1.0014071e-36 6.8362725e-31)
(-1.3672266e-30 0 0 -1.3672266e-30 2.0027734e-36 2.7344532e-30)
(-3.4180651e-31 0 0 -3.4180651e-31 -1.0013863e-36 6.8361301e-31)
(-1.0307844e-29 0 0 1.9590261e-29 5.5369949e-30 -9.2824174e-30)
(-9.9409029e-30 0 0 1.9881806e-29 0 -9.9409029e-30)
(-4.4183575e-30 0 0 8.836715e-30 0 -4.4183575e-30)
(-3.4181019e-31 0 0 -3.4179232e-31 -4.2815486e-33 6.8360251e-31)
(-1.7694684e-29 0 0 3.5389368e-29 0 -1.7694684e-29)
(-4.7702504e-30 0 0 8.5150904e-30 -3.690925e-30 -3.74484e-30)
(-1.10855e-30 0 0 2.2171e-30 0 -1.10855e-30)
(-1.1108092e-30 0 0 2.2216184e-30 0 -1.1108092e-30)
(-8.1493711e-44 0 0 1.6298742e-43 0 -8.1493711e-44)
(-4.7614226e-30 0 0 8.4974271e-30 -3.6872569e-30 -3.7360046e-30)
(-4.4275447e-30 0 0 8.8550893e-30 0 -4.4275447e-30)
(-3.4181133e-31 0 0 -3.4181133e-31 5.0070018e-37 6.8362265e-31)
(-1.443095e-30 0 0 1.8606989e-30 1.8406551e-30 -4.1760394e-31)
(-2.4699856e-30 0 0 8.3892686e-31 -3.6837477e-30 1.6310588e-30)
(-3.4184042e-31 0 0 -3.4184042e-31 -5.007428e-37 6.8368084e-31)
(-8.1499256e-44 0 0 1.6299851e-43 0 -8.1499256e-44)
(-9.9595415e-30 0 0 1.9919083e-29 0 -9.9595415e-30)
(-9.9473845e-30 0 0 1.9894769e-29 0 -9.9473845e-30)
(-3.4183263e-31 0 0 -3.4183263e-31 2.503657e-37 6.8366526e-31)
(-1.3670147e-30 0 0 -1.3670147e-30 -1.0012314e-36 2.7340293e-30)
(-1.4455326e-30 0 0 1.8655436e-30 -1.8427099e-30 -4.2001106e-31)
(-1.1007238e-30 0 0 2.2014477e-30 0 -1.1007238e-30)
(-4.7637989e-30 0 0 8.5020826e-30 3.6884093e-30 -3.7382837e-30)
(-5.7925537e-30 0 0 7.4830516e-30 7.3795172e-30 -1.6904978e-30)
(0 0 0 0 0 0)
(-5.0937882e-45 0 0 1.0187576e-44 0 -5.0937882e-45)
(-3.4183806e-31 0 0 -3.4183806e-31 -2.5036967e-37 6.8367612e-31)
(-5.0924788e-45 0 0 1.0184958e-44 0 -5.0924788e-45)
(-1.4513821e-30 0 0 1.8772493e-30 1.8475824e-30 -4.2586725e-31)
(-1.1098148e-30 0 0 2.2196297e-30 0 -1.1098148e-30)
(-3.4175047e-31 0 0 -3.4175047e-31 0 6.8350093e-31)
(-3.418382e-31 0 0 -3.418382e-31 0 6.8367641e-31)
(-3.418382e-31 0 0 -3.418382e-31 0 6.8367639e-31)
(0 0 0 0 0 0)
(-1.4516531e-30 0 0 1.8777917e-30 -1.8478078e-30 -4.2613865e-31)
(-3.231055e-36 0 0 6.4621101e-36 0 -3.231055e-36)
(-1.4478709e-30 0 0 1.8704903e-30 1.844493e-30 -4.2261947e-31)
(-3.4183807e-31 0 0 -3.4183807e-31 2.3317493e-46 6.8367614e-31)
(-5.0937881e-45 0 0 1.0187576e-44 0 -5.0937881e-45)
(-5.0924788e-45 0 0 1.0184958e-44 0 -5.0924788e-45)
(-3.41838e-31 0 0 -3.41838e-31 0 6.83676e-31)
(-2.0375156e-44 0 0 4.0750313e-44 0 -2.0375156e-44)
(-1.4519554e-30 0 0 1.8785724e-30 1.8479497e-30 -4.2661702e-31)
(-2.4765448e-30 0 0 8.510034e-31 3.6945756e-30 1.6255414e-30)