/*--------------------------------*- C++ -*----------------------------------*\
| =========                 |                                                 |
| \\      /  F ield         | OpenFOAM: The Open Source CFD Toolbox           |
|  \\    /   O peration     | Version:  2.4.0                                 |
|   \\  /    A nd           | Web:      www.OpenFOAM.org                      |
|    \\/     M anipulation  |                                                 |
\*---------------------------------------------------------------------------*/
FoamFile
{
    version     2.0;
    format      ascii;
    class       volSymmTensorField;
    location    "0";
    object      T08;
}
// * * * * * * * * * * * * * * * * * * * * * * * * * * * * * * * * * * * * * //

dimensions      [0 0 0 0 0 0 0];

internalField   nonuniform List<symmTensor> 
32000
(
(-0.0011543014 -6.0852984e-06 0 0.0011543014 0 0)
(-0.0011544006 -5.0401626e-07 -3.1336506e-22 0.0011544006 7.177324e-19 4.4624008e-34)
(-0.0011516967 3.1637074e-05 1.9658217e-20 0.0011516967 7.156257e-19 4.4466582e-34)
(-0.0011327157 8.8748827e-05 2.7579341e-20 0.0011327157 3.5199961e-19 1.0938643e-34)
(-0.0010766961 0.00016326042 5.0942018e-20 0.0010766961 3.3596062e-19 1.0482952e-34)
(-0.00096752333 0.00023836655 7.4299886e-20 0.00096752333 3.0158121e-19 9.400417e-35)
(-0.00081210358 0.00029225762 9.1560833e-20 0.00081210358 2.5442238e-19 7.9707501e-35)
(-0.00065361087 0.00031276965 0 0.00065361087 0 0)
(-0.00053701342 0.00031090583 9.3736362e-20 0.00053701342 1.6190653e-19 4.881391e-35)
(-0.00045701405 0.00030180284 9.2614314e-20 0.00045701405 1.4024401e-19 4.3036716e-35)
(-0.00040251408 0.00029183908 0 0.00040251408 0 0)
(-0.00036554046 0.00028323967 2.1593242e-27 0.00036554046 2.7867577e-27 2.1245306e-50)
(-0.00034036414 0.00027648111 2.2507232e-21 0.00034036414 2.7707697e-21 2.2555738e-38)
(-0.00032404595 0.0002716897 -4.272792e-27 0.00032404595 -5.0961848e-27 8.014635e-50)
(-0.00031470663 0.00026879654 0 0.00031470663 0 0)
(-0.00031161658 0.00026781455 -2.2311768e-21 0.00031161658 -2.5960937e-21 2.1628191e-38)
(-0.0003144904 0.00026872823 1.6834669e-19 0.0003144904 1.9701472e-19 1.2342125e-34)
(-0.00032206851 0.00027108642 1.6941627e-19 0.00032206851 2.0127768e-19 1.2578909e-34)
(-0.00033009328 0.00027350399 8.2868934e-20 0.00033009328 1.0001491e-19 3.0303504e-35)
(-0.0003375261 0.00027567147 8.3374838e-20 0.0003375261 1.0208233e-19 3.087406e-35)
(-0.00034435253 0.00027760233 5.1568144e-26 0.00034435253 6.3967838e-26 1.1882835e-47)
(-0.00035047338 0.00027928565 -3.4430163e-26 0.00035047338 -4.3206144e-26 5.3264269e-48)
(-0.00035578872 0.0002807111 -2.2592429e-21 0.00035578872 -2.8634891e-21 2.3046176e-38)
(-0.00036031951 0.00028189977 -2.2615395e-21 0.00036031951 -2.8906615e-21 2.3190318e-38)
(-0.0003638785 0.00028281659 -2.2632726e-21 0.0003638785 -2.91198e-21 2.3303458e-38)
(-0.00036655009 0.00028349512 0 0.00036655009 0 0)
(-0.00036834563 0.0002839465 2.2652865e-21 0.00036834563 2.9386113e-21 2.3443841e-38)
(-0.0003713607 0.00028469609 -3.4585555e-26 0.0003713607 -4.5113778e-26 5.4805287e-48)
(-0.0003774221 0.00028617148 2.2691931e-21 0.0003774221 2.9927638e-21 2.3731083e-38)
(-0.00038688484 0.00028839142 -2.2729124e-21 0.00038688484 -3.0491731e-21 2.4031586e-38)
(-0.00040012277 0.00029132905 -2.2767388e-21 0.00040012277 -3.1269626e-21 2.4437237e-38)
(-0.00041766037 0.00029492504 2.2812303e-21 0.00041766037 3.2305819e-21 2.4988388e-38)
(-0.000440219 0.0002990662 0 0.000440219 0 0)
(-0.00046877527 0.00030354604 -6.9727431e-26 0.00046877527 -1.0768217e-25 2.4735624e-47)
(-0.00050471858 0.0003080033 1.1898458e-19 0.00050471858 1.9497754e-19 7.5321661e-35)
(-0.00054930757 0.0003117391 1.1959425e-19 0.00054930757 2.10734e-19 8.0845088e-35)
(-0.00060190412 0.00031361623 1.0945714e-19 0.00060190412 2.1007429e-19 7.331933e-35)
(-0.00066012579 0.00031247017 1.0937797e-19 0.00066012579 2.3107236e-19 8.0885243e-35)
(-0.00072362999 0.00030720918 1.0543676e-21 0.00072362999 2.4835587e-21 8.5237812e-39)
(-0.00079172661 0.00029654954 -1.0005228e-21 0.00079172661 -2.6711913e-21 9.0122812e-39)
(-0.0008627753 0.00027912939 5.657424e-26 0.0008627753 1.7486821e-25 3.5442474e-47)
(-0.00093430934 0.00025363552 -8.3043164e-22 0.00093430934 -3.0590354e-21 1.0015631e-38)
(-0.0010028527 0.00021904249 8.6475582e-26 0.0010028527 3.959153e-25 1.5630303e-46)
(-0.0010638917 0.00017501408 2.8017786e-22 0.0010638917 1.7031709e-21 2.7265849e-39)
(-0.0011124446 0.00012219557 -1.9422984e-22 0.0011124446 -1.7682306e-21 2.8106023e-39)
(-0.0011437906 6.242087e-05 4.4367296e-20 0.0011437906 8.1297966e-19 5.7784695e-34)
(-0.0011542531 7.4126947e-06 5.2757255e-21 0.0011542531 8.214992e-19 5.8467325e-34)
(-0.0011544012 8.1406925e-22 -1.8273994e-53 0.0011544012 -2.591367e-35 5.8170265e-67)
(-0.0011544012 -8.1407378e-22 1.5697416e-43 0.0011544012 -2.2259797e-25 4.2922558e-47)
(-0.0011544012 4.3756201e-21 8.4372693e-43 0.0011544012 2.2259689e-25 4.2922143e-47)
(-0.0011544012 0 0 0.0011544012 -2.2259922e-25 4.292304e-47)
(-0.0011544012 -2.5846712e-21 -4.9838819e-43 0.0011544012 2.2259696e-25 4.2922171e-47)
(-0.0011544012 1.7706124e-21 -3.4141981e-43 0.0011544012 -2.2259838e-25 4.2922719e-47)
(-0.0011544012 0 0 0.0011544012 2.2259616e-25 4.2921863e-47)
(-0.0011544012 -2.7474993e-21 0 0.0011544012 0 0)
(-0.0011544012 0 0 0.0011544012 0 0)
(-0.0011544012 -3.0464394e-18 -2.1632949e-33 0.0011544012 8.1974728e-19 5.8210748e-34)
(-0.0011544012 3.0491764e-18 2.1686166e-33 0.0011544012 8.2102622e-19 5.8392526e-34)
(-0.0011544012 -3.0518416e-18 1.083143e-33 0.0011544012 -4.0971382e-19 1.454134e-34)
(-0.0011544012 3.0483119e-18 -1.083497e-33 0.0011544012 -4.1032227e-19 1.4584562e-34)
(-0.0011544012 3.07311e-21 -2.1823934e-36 0.0011544012 -8.1980717e-19 5.8219254e-34)
(-0.0011544012 4.8844345e-22 -3.4736248e-37 0.0011544012 -8.2096644e-19 5.8384024e-34)
(-0.0011544012 0 0 0.0011544012 0 0)
(-0.0011544012 -5.3321876e-21 0 0.0011544012 0 0)
(-0.0011544012 6.146223e-21 -5.9257154e-43 0.0011544012 -1.1129849e-25 1.0730544e-47)
(-0.0011544012 3.0451573e-18 5.8718721e-40 0.0011544012 2.2259922e-25 4.2923041e-47)
(-0.0011544012 -3.0451263e-18 5.8717523e-40 0.0011544012 -2.2259695e-25 4.2922166e-47)
(-0.0011544012 3.0482801e-18 1.0820552e-33 0.0011544012 4.0978053e-19 1.4546076e-34)
(-0.0011544012 -3.0517708e-18 -2.1687903e-33 0.0011544012 8.2039393e-19 5.8302622e-34)
(-0.0011544012 -8.1405598e-23 -2.8954449e-38 0.0011544012 4.1059893e-19 1.4604236e-34)
(-0.0011544012 0 0 0.0011544012 1.1129924e-25 1.0730689e-47)
(-0.0011544012 3.5615386e-21 0 0.0011544012 0 0)
(-0.0011544012 0 0 0.0011544012 1.1129974e-25 1.0730786e-47)
(-0.0011544012 -4.3756009e-21 4.2185977e-43 0.0011544012 -1.1129796e-25 1.0730442e-47)
(-0.0011544012 0 0 0.0011544012 0 0)
(-0.0011544012 8.1407004e-22 -1.8274029e-53 0.0011544012 -2.5913695e-35 5.8170378e-67)
(-0.0011544012 -4.0703667e-22 1.4451028e-37 0.0011544012 -4.0984724e-19 1.4550812e-34)
(-0.0011544012 -4.0703464e-22 1.4463013e-37 0.0011544012 -4.1018918e-19 1.4575102e-34)
(-0.0011544012 0 0 0.0011544012 1.1129922e-25 1.0730685e-47)
(-0.0011544012 0 0 0.0011544012 -1.1129924e-25 1.0730688e-47)
(-0.0011544012 0 0 0.0011544012 1.1130234e-25 1.0731286e-47)
(-0.0011544012 -3.0480445e-18 -1.0822458e-33 0.0011544012 4.098844e-19 1.4553451e-34)
(-0.0011544012 3.0528073e-18 1.0846443e-33 0.0011544012 4.1015192e-19 1.4572454e-34)
(-0.0011544012 -3.0488038e-18 1.4697668e-40 0.0011544012 -5.5651355e-26 2.6828396e-48)
(-0.0011544012 3.0448901e-18 1.4677104e-40 0.0011544012 5.5644922e-26 2.6822193e-48)
(-0.0011544012 2.7476171e-21 0 0.0011544012 0 0)
(-0.0011544012 0 0 0.0011544012 5.5651353e-26 2.6828394e-48)
(-0.0011544012 -2.747268e-21 1.3242493e-43 0.0011544012 -5.564492e-26 2.6822192e-48)
(-0.0011544012 -4.3758381e-21 0 0.0011544012 0 0)
(-0.0011544012 3.5614094e-21 0 0.0011544012 0 0)
(-0.0011544012 3.0488295e-18 7.3489579e-41 0.0011544012 2.7825912e-26 6.7072119e-49)
(-0.0011544012 -3.0479321e-18 -1.0833272e-33 0.0011544012 4.1030908e-19 1.4583624e-34)
(-0.0011544012 3.0483557e-18 1.083792e-33 0.0011544012 4.104281e-19 1.4592086e-34)
(-0.0011544012 -3.0452675e-18 7.3403712e-41 0.0011544012 -2.7825909e-26 6.7072106e-49)
(-0.0011544012 -3.5617149e-21 0 0.0011544012 0 0)
(-0.0011544012 0 0 0.0011544012 0 0)
(-0.0011544012 8.1408823e-23 2.893778e-38 0.0011544012 4.103463e-19 1.458627e-34)
(-0.0011544012 3.4803065e-21 1.2372527e-36 0.0011544012 4.103909e-19 1.4589441e-34)
(-0.0011544012 -4.3752613e-21 0 0.0011544012 0 0)
(-0.0011544012 8.1410766e-22 0 0.0011544012 0 0)
(-0.0011544012 -8.1410765e-22 0 0.0011544012 0 0)
(-0.0011544012 8.140031e-22 0 0.0011544012 0 0)
(-0.0011544012 8.1408807e-23 -2.8940919e-38 0.0011544012 -4.103909e-19 1.4589441e-34)
(-0.0011544012 -8.1408822e-23 2.8937781e-38 0.0011544012 -4.1034632e-19 1.4586271e-34)
(-0.0011544012 0 0 0.0011544012 1.3911165e-26 1.6763713e-49)
(-0.0011544012 0 0 0.0011544012 0 0)
(-0.0011544012 -4.070539e-22 -1.4459502e-37 0.0011544012 4.1007018e-19 1.4566647e-34)
(-0.0011544012 4.8839991e-22 -1.9543618e-40 0.0011544012 -4.6194064e-22 1.8484834e-40)
(-0.0011544012 -8.955162e-22 3.1829354e-37 0.0011544012 -4.1030911e-19 1.4583626e-34)
(-0.0011544012 0 0 0.0011544012 5.5651823e-26 2.6828847e-48)
(-0.0011544012 0 0 0.0011544012 -5.5647022e-26 2.6824218e-48)
(-0.0011544012 8.141104e-22 0 0.0011544012 0 0)
(-0.0011544012 0 0 0.0011544012 -5.564492e-26 2.6822192e-48)
(-0.0011544012 -8.1410101e-22 -7.8492332e-44 0.0011544012 1.1130271e-25 1.0731357e-47)
(-0.0011544012 8.1411036e-22 -3.9247067e-44 0.0011544012 -5.5651992e-26 2.6829009e-48)
(-0.0011544012 0 0 0.0011544012 0 0)
(-0.0011544012 0 0 0.0011544012 5.5651355e-26 2.6828395e-48)
(-0.0011544012 -8.1411031e-22 3.9247062e-44 0.0011544012 -5.5651988e-26 2.6829006e-48)
(-0.0011544012 0 0 0.0011544012 -5.5644923e-26 2.6822194e-48)
(-0.0011544012 0 0 0.0011544012 5.5651357e-26 2.6828397e-48)
(-0.0011544012 4.0705513e-22 -1.4463209e-37 0.0011544012 -4.1017408e-19 1.4574029e-34)
(-0.0011544012 -4.0700349e-22 1.4450383e-37 0.0011544012 -4.0986235e-19 1.4551886e-34)
(-0.0011544012 4.0705055e-22 1.4463579e-37 0.0011544012 4.1018919e-19 1.4575103e-34)
(-0.0011544012 4.070551e-22 1.4451679e-37 0.0011544012 4.0984712e-19 1.4550804e-34)
(-0.0011544012 9.7680449e-22 9.4168668e-44 0.0011544012 1.1128985e-25 1.0728879e-47)
(-0.0011544012 -1.383968e-21 4.9178688e-37 0.0011544012 -4.1021135e-19 1.4576678e-34)
(-0.0011544012 4.0705508e-22 -1.4450901e-37 0.0011544012 -4.0982507e-19 1.4549238e-34)
(-0.0011544012 3.0728731e-21 2.184876e-36 0.0011544012 8.2080306e-19 5.8360787e-34)
(-0.0011544012 -3.0732285e-21 -2.1829123e-36 0.0011544012 8.199705e-19 5.8242454e-34)
(-0.0011544012 -8.1411011e-22 0 0.0011544012 0 0)
(-0.0011544012 8.954058e-22 -3.1847925e-37 0.0011544012 -4.1059913e-19 1.460425e-34)
(-0.0011544012 -8.1408806e-23 2.8923087e-38 0.0011544012 -4.1013803e-19 1.4571468e-34)
(-0.0011544012 0 0 0.0011544012 0 0)
(-0.0011544012 0 0 0.0011544012 -1.112976e-25 1.0730373e-47)
(-0.0011544012 -8.1408689e-22 -7.8489609e-44 0.0011544012 1.1130078e-25 1.0730985e-47)
(-0.0011544012 -1.5234443e-18 5.4226308e-34 0.0011544012 -4.1090387e-19 1.4625936e-34)
(-0.0011544012 1.5234362e-18 -5.4084739e-34 0.0011544012 -4.0983332e-19 1.4549824e-34)
(-0.0011544012 8.1408689e-22 0 0.0011544012 0 0)
(-0.0011544012 1.5243401e-18 3.8269259e-37 0.0011544012 2.8981775e-22 7.276008e-41)
(-0.0011544012 -1.5251454e-18 3.8289259e-37 0.0011544012 -2.8981609e-22 7.2759249e-41)
(-0.0011544012 8.140869e-22 0 0.0011544012 0 0)
(-0.0011544012 -8.1406815e-22 1.5697199e-43 0.0011544012 -2.2259643e-25 4.2921965e-47)
(-0.0011544012 8.1406322e-22 -1.8273723e-53 0.0011544012 -2.5913478e-35 5.8169403e-67)
(-0.0011544012 -8.140869e-22 -1.5697922e-43 0.0011544012 2.2260155e-25 4.2923942e-47)
(-0.0011544012 8.140683e-22 1.5697205e-43 0.0011544012 2.2259647e-25 4.292198e-47)
(-0.0011544012 -8.1406307e-22 1.5697003e-43 0.0011544012 -2.2259504e-25 4.2921428e-47)
(-0.0011544012 0 0 0.0011544012 0 0)
(-0.0011544012 0 0 0.0011544012 -2.2259651e-25 4.2921995e-47)
(-0.0011544012 8.1406292e-22 1.5696997e-43 0.0011544012 2.22595e-25 4.2921413e-47)
(-0.0011544012 3.5616249e-21 -6.8678308e-43 0.0011544012 -2.2260156e-25 4.2923943e-47)
(-0.0011544012 -4.3756133e-21 -8.4372431e-43 0.0011544012 2.2259654e-25 4.292201e-47)
(-0.0011544012 8.1406277e-22 0 0.0011544012 0 0)
(-0.0011544012 -8.1410809e-22 1.5698739e-43 0.0011544012 -2.2260735e-25 4.2926175e-47)
(-0.0011542535 -7.4044577e-06 3.6407323e-25 0.0011542535 -5.6754027e-23 2.7905652e-42)
(-0.0011437875 -6.2430006e-05 -4.9390091e-23 0.0011437875 9.0488168e-22 7.1587673e-40)
(-0.0011124234 -0.00012222518 0 0.0011124234 0 0)
(-0.0010639754 -0.00017494084 -3.4187983e-26 0.0010639754 2.0792842e-25 4.0634612e-47)
(-0.0010027842 -0.00021908359 0 0.0010027842 0 0)
(-0.00093420799 -0.00025367839 5.0694406e-26 0.00093420799 -1.8668961e-25 3.7307549e-47)
(-0.00086299162 -0.00027906531 1.0178547e-22 0.00086299162 -3.1476504e-22 1.1480648e-40)
(-0.00079168225 -0.00029655831 6.5261954e-24 0.00079168225 -1.7422115e-23 3.8339891e-43)
(-0.00072353573 -0.00030722022 -1.1772884e-21 0.00072353573 2.7726373e-21 1.0624931e-38)
(-0.0006599779 -0.00031247746 0 0.0006599779 0 0)
(-0.00060193383 -0.00031361651 9.7676189e-22 0.00060193383 -1.8747292e-21 5.8388634e-39)
(-0.00054962593 -0.0003117587 -2.2619166e-21 0.00054962593 3.9877252e-21 2.8932318e-38)
(-0.00050468443 -0.00030799968 1.4067786e-22 0.00050468443 -2.3051298e-22 1.0528606e-40)
(-0.00046869477 -0.00030353459 0 0.00046869477 0 0)
(-0.00044015729 -0.0002990556 -6.9720541e-26 0.00044015729 1.0261638e-25 2.3923544e-47)
(-0.00041759918 -0.00029491307 1.3923519e-25 0.00041759918 -1.9715811e-25 9.3082844e-47)
(-0.00040007451 -0.00029131869 -6.948425e-26 0.00040007451 9.5424283e-26 2.2760245e-47)
(-0.00038682826 -0.00028837844 0 0.00038682826 0 0)
(-0.00037735976 -0.00028615652 2.2691932e-21 0.00037735976 -2.9924261e-21 2.3729646e-38)
(-0.00037131968 -0.00028468596 8.7398058e-20 0.00037131968 -1.1399445e-19 3.4996083e-35)
(-0.00036834392 -0.00028394607 8.7093868e-20 0.00036834392 -1.1298095e-19 3.4654284e-35)
(-0.00036660659 -0.00028350938 -3.455496e-26 0.00036660659 4.4683094e-26 5.4461074e-48)
(-0.00036430898 -0.00028292649 0 0.00036430898 0 0)
(-0.00036027451 -0.00028188808 -3.4508617e-26 0.00036027451 4.410465e-26 5.3992723e-48)
(-0.00035574472 -0.00028069944 8.6615599e-20 0.00035574472 -1.0977237e-19 3.3872528e-35)
(-0.00035044187 -0.00027927709 8.6225038e-20 0.00035044187 -1.0819671e-19 3.3405051e-35)
(-0.00034433476 -0.00027759738 3.4378665e-26 0.00034433476 -4.2643665e-26 5.2811459e-48)
(-0.00033750191 -0.00027566452 0 0.00033750191 0 0)
(-0.00033008062 -0.00027350024 0 0.00033008062 0 0)
(-0.00032205614 -0.00027108264 0 0.00032205614 0 0)
(-0.00031448189 -0.00026872554 2.2593214e-21 0.00031448189 -2.6440199e-21 2.2229709e-38)
(-0.0003116095 -0.00026781229 -5.5955769e-24 0.0003116095 6.5106608e-24 1.3603149e-43)
(-0.00031470131 -0.00026879486 -5.5445114e-24 0.00031470131 6.4914372e-24 1.339008e-43)
(-0.00032401694 -0.00027168089 2.2252675e-21 0.00032401694 -2.6539385e-21 2.1737721e-38)
(-0.00034035133 -0.00027647748 -4.2928923e-27 0.00034035133 5.2846678e-27 8.2055543e-50)
(-0.00036551659 -0.00028323362 2.2643366e-21 0.00036551659 -2.9221552e-21 2.3361433e-38)
(-0.00040244914 -0.00029182531 4.0664195e-24 0.00040244914 -5.6078996e-24 7.8142888e-44)
(-0.00045693723 -0.00030179099 2.2888603e-21 0.00045693723 -3.4655292e-21 2.6283463e-38)
(-0.00053717659 -0.00031091787 -7.4565624e-24 0.00053717659 1.2882794e-23 3.0896055e-43)
(-0.00065383372 -0.00031276013 9.6812913e-20 0.00065383372 -2.0239008e-19 6.2648563e-35)
(-0.00081195668 -0.0002922905 9.1593688e-20 0.00081195668 -2.5443901e-19 7.9732347e-35)
(-0.00096745043 -0.00023840291 -7.7605923e-22 0.00096745043 3.1492856e-21 1.0251688e-38)
(-0.0010767529 -0.0001632056 -2.60814e-22 0.0010767529 1.7207267e-21 2.749842e-39)
(-0.0011327122 -8.8755726e-05 5.3657828e-28 0.0011327122 -6.8478826e-27 4.1399302e-50)
(-0.0011516958 -3.1642128e-05 -1.2501881e-23 0.0011516958 4.550378e-22 1.7978653e-40)
(-0.0011544006 5.0646835e-07 -3.1487e-22 0.0011544006 -7.1768768e-19 4.4618448e-34)
(-0.0011543014 6.0855265e-06 -3.7832053e-21 0.0011543014 -7.1759762e-19 4.461108e-34)
(-7.1196138e-91 0 0 0 0 7.1196138e-91)
(-1.5645443e-57 7.0002005e-61 -2.2040165e-60 1.4336411e-58 -4.5138258e-58 1.4211802e-57)
(-2.1681988e-56 0 0 5.3392224e-58 3.3602712e-57 2.1148066e-56)
(-6.51634e-57 0 0 0 0 6.51634e-57)
(-5.6912904e-58 2.2006896e-59 1.7276986e-59 3.5211033e-58 2.7643178e-58 2.1701871e-58)
(-7.7846952e-59 0 1.2838933e-59 0 0 7.7846952e-59)
(-8.4648774e-59 0 -1.4029058e-59 0 0 8.4648774e-59)
(0 0 0 0 0 0)
(-4.1864287e-58 1.5388156e-58 1.388095e-58 2.3082234e-58 2.0821425e-58 1.8782053e-58)
(-1.7363014e-58 0 0 6.2772263e-59 -8.341942e-59 1.1085787e-58)
(-1.510025e-60 0 0 1.510025e-60 9.2164611e-68 5.6252815e-75)
(-1.7671936e-58 1.1775931e-58 -2.5122011e-60 1.7663897e-58 -3.7683017e-60 8.0390512e-62)
(-1.5874611e-60 0 0 1.5809853e-60 -1.0118335e-61 6.475753e-63)
(-4.2427624e-57 0 -5.8907015e-58 0 0 4.2427624e-57)
(-4.4008632e-57 1.6760582e-58 -1.2029667e-57 8.3802912e-59 -6.0148336e-58 4.3170603e-57)
(-2.9944512e-73 0 -6.132636e-67 0 0 2.9944512e-73)
(-7.1243098e-58 0 0 0 0 7.1243098e-58)
(-7.5877032e-58 0 3.1359426e-58 0 0 7.5877032e-58)
(-4.9871159e-59 7.9192351e-60 1.8227099e-59 7.9192351e-60 1.8227099e-59 4.1951924e-59)
(-9.3918592e-59 0 0 3.9061579e-59 -4.6290404e-59 5.4857012e-59)
(-3.436435e-63 0 -5.3693477e-62 0 0 3.436435e-63)
(-8.7272616e-61 0 0 8.7272616e-61 -8.5227164e-67 8.3229652e-73)
(-1.3656849e-65 0 0 0 0 1.3656849e-65)
(-3.4891859e-60 6.9499059e-60 -4.4478719e-61 3.474953e-60 -2.223936e-61 1.4232973e-62)
(-6.0715109e-73 0 6.2172271e-67 0 0 6.0715109e-73)
(-6.7534916e-61 0 0 6.7534916e-61 6.5952066e-67 6.4406315e-73)
(-1.933561e-59 1.9315831e-59 6.1809715e-61 1.9315831e-59 6.1809715e-61 1.9778807e-62)
(-2.0445093e-72 0 -1.0467888e-66 0 0 2.0445093e-72)
(-5.7030852e-61 0 0 5.6798193e-61 3.6351953e-62 2.326596e-63)
(-1.9292752e-63 0 -3.0144925e-62 0 0 1.9292752e-63)
(-1.7871243e-63 0 2.7924669e-62 0 0 1.7871243e-63)
(-8.5590824e-61 -8.5241674e-61 5.4554671e-62 8.5241674e-61 -5.4554671e-62 3.491499e-63)
(-1.8804362e-60 3.7608724e-60 7.3454538e-66 1.8804362e-60 3.6727269e-66 7.1732947e-72)
(-7.1058475e-61 7.1058475e-61 0 7.1058475e-61 0 0)
(-7.9004219e-59 0 0 2.0778665e-59 3.4782888e-59 5.8225554e-59)
(-4.6245444e-59 0 1.346154e-59 0 0 4.6245444e-59)
(-3.3049264e-59 0 0 3.0387551e-60 9.5495857e-60 3.0010509e-59)
(-2.1221142e-57 0 0 0 0 2.1221142e-57)
(-5.1853572e-58 1.1011869e-59 -3.6142089e-59 4.4047476e-59 -1.4456836e-58 4.7448824e-58)
(-5.5159078e-58 1.0905187e-59 -3.7213937e-59 4.362075e-59 -1.4885575e-58 5.0797003e-58)
(-8.2910936e-58 5.1824459e-59 -8.9756679e-59 2.0729784e-58 -3.5902672e-58 6.2181153e-58)
(-3.6707329e-60 -1.8348966e-60 -2.9360138e-62 3.6697933e-60 5.8720276e-62 9.3958177e-64)
(-5.0189337e-58 0 0 3.7834025e-59 -1.3250371e-58 4.6405934e-58)
(-5.0627986e-58 9.3363331e-60 -3.3083716e-59 3.7345332e-59 -1.3233486e-58 4.6893453e-58)
(-9.683922e-66 0 -7.5660258e-65 0 0 9.683922e-66)
(-4.4705291e-58 0 3.8751146e-60 0 0 4.4705291e-58)
(-7.6105991e-58 1.404104e-60 2.5252695e-60 1.7972531e-58 3.232345e-58 5.813346e-58)
(-4.2480554e-59 -1.8016284e-61 1.0241072e-77 4.2480554e-59 -2.4147399e-75 1.3726207e-91)
(-5.4949094e-76 0 -8.791855e-72 0 0 5.4949094e-76)
(-2.6559952e-60 5.4542717e-62 -5.3264372e-68 2.6559952e-60 -2.5937454e-66 2.5329544e-72)
(-1.1769473e-95 0 -1.2709547e-82 0 0 1.1769473e-95)
(-1.3877313e-58 -5.312928e-61 -4.7739643e-61 7.6780394e-59 6.8991497e-59 6.1992735e-59)
(-4.7765945e-59 7.5412214e-62 1.3577332e-61 1.126158e-59 2.0275523e-59 3.6504365e-59)
(-2.6551351e-60 -2.2521207e-62 0 2.6551351e-60 0 0)
(-2.655073e-60 0 0 2.655073e-60 0 0)
(-2.6551966e-60 1.8965718e-62 0 2.6551966e-60 0 0)
(-5.1855098e-58 -5.7976852e-61 2.0883872e-60 3.7105186e-59 -1.3365678e-58 4.8144579e-58)
(-5.1539163e-58 -8.9177399e-61 -3.2069747e-60 3.6992123e-59 1.3303012e-58 4.7839951e-58)
(-2.788675e-59 0 -2.4204263e-61 0 0 2.788675e-59)
(-2.7709869e-59 0 -5.506042e-62 0 0 2.7709869e-59)
(-4.4263843e-58 0 1.924752e-60 0 0 4.4263843e-58)
(-2.6569601e-60 7.3539793e-62 -2.7836476e-64 2.6569221e-60 -1.0057051e-62 3.8068214e-65)
(-3.2699229e-76 0 -4.0360174e-72 0 0 3.2699229e-76)
(-0 0 0 0 0 0)
(-2.6562275e-60 6.0476637e-62 0 2.6562275e-60 0 0)
(-2.6552315e-60 1.8965968e-62 0 2.6552315e-60 0 0)
(-2.1505523e-58 0 0 2.1505523e-58 -3.5002478e-65 5.697018e-72)
(-4.7724061e-59 9.5479319e-62 -1.718543e-61 1.1256523e-59 -2.0260743e-59 3.6467538e-59)
(-1.735923e-56 0 -3.4472924e-60 0 0 1.735923e-56)
(-7.1302419e-57 0 1.0170142e-59 0 0 7.1302419e-57)
(-2.6551961e-60 -1.8965715e-62 0 2.6551961e-60 0 0)
(-4.2479925e-59 -1.5171424e-61 -1.7247913e-77 4.2479925e-59 4.8294083e-75 5.4904016e-91)
(-2.6551237e-60 0 0 2.6551237e-60 0 0)
(-2.1944962e-96 0 -1.6373054e-82 0 0 2.1944962e-96)
(-2.6564827e-60 -6.404018e-62 -3.1269619e-68 2.6564827e-60 1.2971107e-66 6.3335484e-73)
(-2.6555786e-60 -4.1493416e-62 -2.0260457e-68 2.6555786e-60 1.2966693e-66 6.3313929e-73)
(-4.7698785e-59 8.0383068e-62 -1.4465672e-61 1.1253613e-59 -2.025191e-59 3.6445172e-59)
(-2.7759326e-59 0 5.9274388e-61 0 0 2.7759326e-59)
(-1.2363652e-75 0 1.1869105e-70 0 0 1.2363652e-75)
(-1.3080234e-75 0 3.2289478e-71 0 0 1.3080234e-75)
(-2.6553711e-60 0 0 2.6553711e-60 -1.2965679e-66 6.3308979e-73)
(-4.7681077e-59 8.0355046e-62 -1.4460415e-61 1.124969e-59 -2.024455e-59 3.6431388e-59)
(-4.7590879e-59 2.5596658e-61 4.6025196e-61 1.1242448e-59 2.0214979e-59 3.6348431e-59)
(-4.2486991e-59 -1.5173948e-61 -1.8522886e-68 4.2486991e-59 5.1864003e-66 6.3310551e-73)
(-2.4059759e-57 -4.2809963e-61 2.3096714e-60 7.9911812e-59 -4.3113802e-58 2.3260641e-57)
(-2.2539938e-57 0 -7.4570131e-61 0 0 2.2539938e-57)
(-2.6554366e-60 9.4837163e-63 2.3153604e-69 2.6554366e-60 6.4829995e-67 1.5827635e-73)
(-4.2467352e-59 -1.5166934e-61 1.8514324e-68 4.2467352e-59 -5.184003e-66 6.3281286e-73)
(-4.4435624e-58 0 2.3716987e-60 0 0 4.4435624e-58)
(-4.451199e-58 0 -3.4237813e-60 0 0 4.451199e-58)
(0 0 0 -0 -0 -0)
(-1.3930619e-58 1.8033804e-60 -1.6235258e-60 7.6944232e-59 -6.9270433e-59 6.2361957e-59)
(-2.788266e-59 0 4.8401664e-61 0 0 2.788266e-59)
(0 0 0 -0 -0 -0)
(-2.6556113e-60 -1.896868e-62 0 2.6556113e-60 0 0)
(0 0 0 0 0 0)
(-2.790273e-59 0 3.5286546e-61 0 0 2.790273e-59)
(-4.7757129e-59 -2.5641153e-61 -4.6158051e-61 1.1261991e-59 2.027333e-59 3.6495138e-59)
(-2.6547057e-60 -4.1479777e-62 -6.3293117e-70 2.6547057e-60 4.0507595e-68 6.1809684e-76)
(-4.2488569e-59 1.8019683e-61 -1.3744571e-69 4.2488569e-59 -3.2408292e-67 2.4719528e-75)
(-2.3568012e-87 0 5.3662124e-78 0 0 2.3568012e-87)
(-0 0 0 0 0 0)
(-2.7889865e-59 0 -3.5274337e-61 0 0 2.7889865e-59)
(-2.6569296e-60 6.5236993e-62 1.0029555e-64 2.6569234e-60 4.0847622e-63 6.279926e-66)
(-2.7786512e-59 0 2.7584733e-62 0 0 2.7786512e-59)
(-2.6556114e-60 1.8968681e-62 2.3155129e-69 2.6556114e-60 3.2417131e-67 3.9571694e-74)
(-2.7782782e-59 0 1.3103139e-61 0 0 2.7782782e-59)
(-2.6541353e-60 0 0 2.6541325e-60 -2.7049948e-63 2.7568317e-66)
(-2.7909884e-59 0 -1.107207e-61 0 0 2.7909884e-59)
(-1.3739575e-76 0 -1.7586656e-71 0 0 1.3739575e-76)
(-8.1736219e-77 0 -8.0708642e-72 0 0 8.1736219e-77)
(-1.0122521e-77 0 -3.5168486e-73 0 0 1.0122521e-77)
(-2.6541794e-60 0 0 2.6541794e-60 0 0)
(-0 0 0 0 0 0)
(-1.3739741e-76 0 1.7586869e-71 0 0 1.3739741e-76)
(-2.6543494e-60 2.2514542e-62 5.4967144e-69 2.6543494e-60 6.4803452e-67 1.5821155e-73)
(-2.6555766e-60 2.2524952e-62 0 2.6555766e-60 0 0)
(-2.6578328e-60 -8.3057274e-62 4.055531e-68 2.6578328e-60 -1.2977699e-66 6.3367672e-73)
(-2.6554029e-60 -6.0457863e-62 0 2.6554029e-60 0 0)
(-3.2704672e-76 0 1.6146756e-71 0 0 3.2704672e-76)
(-4.7579722e-59 -1.7563759e-61 3.1579463e-61 1.1240806e-59 -2.0210856e-59 3.6338916e-59)
(-4.7698763e-59 3.5165213e-61 6.3285752e-61 1.1252868e-59 2.0251441e-59 3.6445895e-59)
(-2.7764843e-59 0 7.2387082e-61 0 0 2.7764843e-59)
(-4.7702797e-59 -1.7586458e-61 -3.1647023e-61 1.1255333e-59 2.0254095e-59 3.6447464e-59)
(-2.6547565e-60 4.148057e-62 9.4315913e-78 2.6547565e-60 6.0362184e-76 1.3724774e-91)
(-4.756529e-59 -1.7560701e-61 -3.1571293e-61 1.1238849e-59 2.0205627e-59 3.6326441e-59)
(-2.785275e-59 0 0 0 0 2.785275e-59)
(-4.4456525e-58 0 -1.9308837e-60 0 0 4.4456525e-58)
(-4.4650464e-58 0 3.8748919e-60 0 0 4.4650464e-58)
(-2.6555251e-60 0 0 2.6555251e-60 1.2966431e-66 6.3312651e-73)
(-2.4132309e-57 -9.646754e-61 5.2086387e-60 8.0032365e-59 -4.3212429e-58 2.3331986e-57)
(-2.2522373e-57 0 1.4905259e-60 0 0 2.2522373e-57)
(-2.6549723e-60 0 0 2.6549723e-60 1.2963732e-66 6.3299473e-73)
(0 0 0 -0 -0 -0)
(-2.6553427e-60 -1.8966762e-62 -2.1562712e-78 2.6553427e-60 3.0187751e-76 3.43195e-92)
(-2.7828679e-59 0 6.4910807e-61 0 0 2.7828679e-59)
(-2.7978821e-59 0 -5.4077612e-61 0 0 2.7978821e-59)
(-0 0 0 0 0 0)
(-2.6549761e-60 0 0 2.6549761e-60 2.5927501e-66 2.5319825e-72)
(-2.6550852e-60 2.2520784e-62 -5.1206334e-78 2.6550852e-60 -6.0369649e-76 1.3726469e-91)
(-4.2484237e-59 1.8017846e-61 0 4.2484237e-59 0 0)
(-2.6555541e-60 -4.1493033e-62 0 2.6555541e-60 0 0)
(-2.1944632e-96 0 -1.6372807e-82 0 0 2.1944632e-96)
(-4.4623691e-58 0 -2.3791545e-60 0 0 4.4623691e-58)
(-5.1449382e-58 7.0949013e-61 2.5502677e-60 3.6959476e-59 1.3285112e-58 4.7753434e-58)
(-4.248089e-59 3.3188196e-61 1.6205174e-67 4.248089e-59 2.0742622e-65 1.0128234e-71)
(-2.6552225e-60 0 0 2.6552225e-60 -2.5929907e-66 2.5322175e-72)
(-4.7765722e-59 -7.5410766e-62 1.35772e-61 1.1261364e-59 -2.0275326e-59 3.6504359e-59)
(-1.3876811e-58 -3.4275552e-61 3.0798731e-61 7.6777122e-59 -6.8989054e-59 6.1990986e-59)
(-4.4320013e-96 0 4.6989979e-82 0 0 4.4320013e-96)
(-2.6550136e-60 9.4822057e-63 -9.2599665e-69 2.6550136e-60 -2.5927867e-66 2.5320183e-72)
(-2.6554839e-60 4.1491936e-62 4.0519469e-68 2.6554839e-60 2.593246e-66 2.5324668e-72)
(-5.1807258e-58 7.1202296e-61 2.5640194e-60 3.7091418e-59 1.3356749e-58 4.8098116e-58)
(-5.1339175e-58 -4.3238547e-61 -1.5538364e-60 3.6896894e-59 1.3259404e-58 4.7649486e-58)
(-2.6470684e-60 0 0 2.646899e-60 2.1175192e-62 1.6940154e-64)
(-2.6750409e-60 0 0 2.6750409e-60 2.6123446e-66 2.5511178e-72)
(-2.7809466e-60 -3.4759606e-61 2.7814474e-63 2.7807685e-60 -2.2251579e-62 1.7805609e-64)
(-2.8923335e-60 -3.6154169e-61 3.5306806e-67 2.8923335e-60 -2.8245444e-66 2.7583442e-72)
(-1.9678433e-67 0 0 0 0 1.9678433e-67)
(-3.9049918e-60 -1.9519961e-60 -3.1233844e-62 3.9039922e-60 6.2467688e-62 9.9954402e-64)
(-6.0223034e-58 0 0 4.5481885e-59 -1.5912878e-58 5.5674845e-58)
(-5.4402275e-58 0 -7.860405e-59 0 0 5.4402275e-58)
(-4.2970743e-60 -1.0739936e-60 -1.7184946e-62 4.2959744e-60 6.8739785e-62 1.0999037e-63)
(-5.4737225e-60 -2.7340614e-60 8.7492635e-62 5.4681228e-60 -1.7498527e-61 5.5996996e-63)
(-5.864932e-61 -5.8410058e-61 -3.7383578e-62 5.8410058e-61 3.7383578e-62 2.392622e-63)
(-4.6534469e-58 0 -7.705634e-59 0 0 4.6534469e-58)
(-5.0656649e-58 0 0 1.3806503e-59 8.2482073e-59 4.9275999e-58)
(-4.1621622e-61 0 0 4.1451835e-61 2.6529175e-62 1.6978672e-63)
(-0 0 0 0 0 0)
(-9.5563622e-60 -4.7781811e-60 0 9.5563622e-60 0 0)
(-1.0027639e-60 -9.9867333e-61 6.3915093e-62 9.9867333e-61 -6.3915093e-62 4.090566e-63)
(-8.2492886e-63 0 2.5779814e-61 0 0 8.2492886e-63)
(-3.3901967e-59 -4.7974649e-60 1.1816422e-59 4.7974649e-60 -1.1816422e-59 2.9104502e-59)
(-2.704919e-59 0 1.097131e-59 0 0 2.704919e-59)
(-1.2836379e-60 -1.2784016e-60 8.18177e-62 1.2784016e-60 -8.18177e-62 5.2363328e-63)
(-0 0 0 0 0 0)
(-1.2195815e-59 0 0 1.2195815e-59 5.9549876e-66 2.9077088e-72)
(-4.500823e-59 6.426268e-60 -1.5746048e-59 6.426268e-60 -1.5746048e-59 3.8581962e-59)
(-2.8241766e-59 0 0 0 0 2.8241766e-59)
(-1.7746716e-60 -1.7746716e-60 0 1.7746716e-60 0 0)
(-1.0154402e-60 0 0 1.0154402e-60 0 0)
(-2.3354505e-73 0 -4.7830026e-67 0 0 2.3354505e-73)
(-2.3491982e-59 -1.1745991e-59 2.8676736e-66 2.3491982e-59 -5.7353473e-66 1.4002313e-72)
(-1.3220319e-60 0 0 1.316639e-60 -8.4264894e-62 5.3929532e-63)
(-5.1682597e-63 0 8.0754058e-62 0 0 5.1682597e-63)
(-2.9282511e-59 -1.4626278e-59 -4.6804091e-61 2.9252557e-59 9.3608182e-61 2.9954618e-62)
(-7.0972782e-60 -1.4136652e-59 9.0474748e-61 7.0683262e-60 -4.5237374e-61 2.8951974e-62)
(-1.5745963e-60 0 0 1.5745963e-60 1.9221146e-67 2.3463313e-74)
(-2.9519255e-60 -2.9519255e-60 0 2.9519255e-60 0 0)
(-1.5103995e-60 0 0 1.5103995e-60 0 0)
(-1.4655739e-60 0 0 1.441949e-60 -1.8456947e-61 2.3624892e-62)
(-1.2896407e-60 0 0 1.2896407e-60 0 0)
(-1.6245211e-58 -1.3745982e-59 1.9217542e-59 5.4983927e-59 -7.6870167e-59 1.0746818e-58)
(-1.9192786e-58 -4.4616791e-59 6.6571361e-59 5.9489055e-59 -8.8761814e-59 1.3243881e-58)
(-2.5800475e-57 0 0 7.7098377e-58 -1.1809991e-57 1.8090638e-57)
(-1.2961738e-57 0 -5.1856428e-59 0 0 1.2961738e-57)
(-1.3247985e-59 0 0 1.3247985e-59 -8.0859284e-67 4.935259e-74)
(-1.3160938e-59 -4.1127767e-61 -8.2256789e-64 1.3160885e-59 2.6322172e-62 5.2645148e-65)
(-1.5648108e-57 -1.7500135e-60 -5.5105061e-60 1.4336111e-58 4.5142066e-58 1.4214497e-57)
(-1.5642107e-57 -1.1198259e-60 3.5257207e-60 1.4333772e-58 -4.5129225e-58 1.420873e-57)
(0 0 0 0 0 0)
(-6.2237633e-73 0 -1.6531871e-70 0 0 6.2237633e-73)
(-1.2388301e-57 -3.549652e-60 -1.1172252e-59 1.1358887e-58 3.5751207e-58 1.1252413e-57)
(-1.021773e-57 0 0 0 0 1.021773e-57)
(-1.0762484e-59 0 0 1.0761795e-59 8.6093703e-62 6.8874437e-64)
(-6.7021188e-59 0 1.0822783e-59 0 0 6.7021188e-59)
(-5.7452404e-59 0 0 0 0 5.7452404e-59)
(-1.3261682e-58 1.1053946e-59 -1.5629942e-59 4.4215785e-59 -6.2519768e-59 8.8401039e-59)
(-9.1559079e-59 1.013675e-59 2.8729041e-59 1.013675e-59 2.8729041e-59 8.1422329e-59)
(-5.6050679e-59 0 0 0 0 5.6050679e-59)
(-7.868673e-59 0 6.1599808e-59 0 0 7.868673e-59)
(-2.4242614e-59 1.2108907e-59 -3.8748504e-61 2.4217815e-59 -7.7497007e-61 2.4799042e-62)
(-2.3549608e-60 -2.3549608e-60 -2.874708e-67 2.3549608e-60 2.874708e-67 3.5091651e-74)
(-3.4943554e-57 6.6036146e-59 -4.7580772e-58 6.6036146e-59 -4.7580772e-58 3.4283193e-57)
(-4.2924197e-63 0 6.734987e-62 0 0 4.2924197e-63)