/*--------------------------------*- C++ -*----------------------------------*\
| =========                 |                                                 |
| \\      /  F ield         | OpenFOAM: The Open Source CFD Toolbox           |
|  \\    /   O peration     | Version:  2.4.0                                 |
|   \\  /    A nd           | Web:      www.OpenFOAM.org                      |
|    \\/     M anipulation  |                                                 |
\*---------------------------------------------------------------------------*/
FoamFile
{
    version     2.0;
    format      ascii;
    class       surfaceScalarField;
    location    "10";
    object      phi;
}
// * * * * * * * * * * * * * * * * * * * * * * * * * * * * * * * * * * * * * //

dimensions      [0 3 -1 0 0 0 0];

internalField   nonuniform List<scalar> 
156040
(
-2.1380296e-07
-3.5832627e-08
-2.3661521e-07
2.2812248e-08
-1.878214e-07
-4.8793808e-08
-1.8960396e-07
1.7825514e-09
-1.6146983e-07
-2.8134135e-08
-1.7516559e-07
1.3695765e-08
-1.5802029e-07
-1.714531e-08
-1.3636227e-07
-2.165802e-08
-1.134794e-07
-2.2882882e-08
-1.0628735e-07
-7.1920512e-09
-1.0229534e-07
-3.9920034e-09
-1.0031122e-07
-1.9830745e-09
-1.0732522e-07
7.0129282e-09
-1.235349e-07
1.6210169e-08
-1.320879e-07
8.5524637e-09
-9.3305554e-08
-3.8782945e-08
5.1455304e-08
-1.4476028e-07
2.8739846e-07
-2.3594315e-07
5.2240919e-07
-2.3501073e-07
6.3116501e-07
-1.0875582e-07
5.0260811e-07
1.2855689e-07
2.26359e-07
2.7624911e-07
4.7885212e-08
1.7847378e-07
4.0140901e-08
7.7443043e-09
1.0855881e-07
-6.8417914e-08
1.9172656e-07
-8.3167712e-08
2.4711229e-07
-5.5385786e-08
2.7312367e-07
-2.601184e-08
2.6608017e-07
7.0439647e-09
1.7859609e-07
8.7484722e-08
1.4523915e-08
1.6407156e-07
-1.9026267e-07
2.0478658e-07
-4.0881012e-07
2.1854746e-07
-6.2343916e-07
2.1462903e-07
-8.2251304e-07
1.9907387e-07
-9.9559501e-07
1.7308196e-07
-1.1361e-06
1.4050495e-07
-1.2450266e-06
1.0892658e-07
-1.3244843e-06
7.945868e-08
-1.3763998e-06
5.1914493e-08
-1.4030754e-06
2.2523221e-08
-1.4072037e-06
4.1358751e-09
-1.3915814e-06
-1.5620612e-08
-1.3592763e-06
-3.2306738e-08
-1.313734e-06
-4.5542201e-08
-1.2584024e-06
-5.5331744e-08
-1.196588e-06
-6.1814434e-08
-1.1323925e-06
-6.4195501e-08
-1.0695879e-06
-6.2804671e-08
-1.0078502e-06
-6.1737686e-08
-9.4671515e-07
-6.1135062e-08
-8.8646042e-07
-6.0254737e-08
-8.2735085e-07
-5.9109581e-08
-7.6952124e-07
-5.7829633e-08
-7.1294285e-07
-5.6578406e-08
-6.5745718e-07
-5.5485686e-08
-6.0279314e-07
-5.4664053e-08
-5.4857474e-07
-5.4218425e-08
-4.9432108e-07
-5.4253682e-08
-4.395059e-07
-5.4815207e-08
-3.8329877e-07
-5.6207153e-08
-3.2379863e-07
-5.950016e-08
-2.5716034e-07
-6.6638312e-08
-1.8258174e-07
-7.4578624e-08
-1.0567409e-07
-7.6907671e-08
-3.2149578e-08
-7.3524531e-08
3.5650263e-08
-6.7799869e-08
9.7655769e-08
-6.2005524e-08
1.5413336e-07
-5.6477617e-08
2.0525615e-07
-5.1122801e-08
2.5121378e-07
-4.5957656e-08
2.9229461e-07
-4.1080836e-08
3.288121e-07
-3.6517512e-08
3.6112253e-07
-3.2310436e-08
3.8958162e-07
-2.8459106e-08
4.1454985e-07
-2.4968237e-08
4.3637114e-07
-2.1821299e-08
4.5537562e-07
-1.9004484e-08
4.718691e-07
-1.6493492e-08
4.8613556e-07
-1.4266458e-08
4.9843541e-07
-1.2299858e-08
5.0900835e-07
-1.0572933e-08
5.1806256e-07
-9.0542158e-09
5.2577981e-07
-7.7172521e-09
5.3232423e-07
-6.5444152e-09
5.3784504e-07
-5.5207949e-09
5.4247556e-07
-4.6305223e-09
5.4633485e-07
-3.8592863e-09
5.4952714e-07
-3.1922795e-09
5.5214431e-07
-2.6171602e-09
5.5426527e-07
-2.1209686e-09
5.5595886e-07
-1.6935832e-09
5.5728328e-07
-1.3244204e-09
5.582883e-07
-1.0050166e-09
5.5901512e-07
-7.2682051e-10
5.5949852e-07
-4.833986e-10
5.5976648e-07
-2.6796379e-10
5.598411e-07
-7.4612246e-11
5.5973961e-07
1.0149395e-10
5.5947502e-07
2.6459089e-10
5.5905634e-07
4.186913e-10
5.5848898e-07
5.6736723e-10
5.5777468e-07
7.1429468e-10
5.5691313e-07
8.6155261e-10
5.5589992e-07
1.0132101e-09
5.5472865e-07
1.1712699e-09
5.5338977e-07
1.3388746e-09
5.5187259e-07
1.5171836e-09
5.5016417e-07
1.7084152e-09
5.4825084e-07
1.9133322e-09
5.4611826e-07
2.1325769e-09
5.4375213e-07
2.3661264e-09
5.4113789e-07
2.6142384e-09
5.3826193e-07
2.8759688e-09
5.3511171e-07
3.1502171e-09
5.3167586e-07
3.4358558e-09
5.2794429e-07
3.7315713e-09
5.2390904e-07
4.0352531e-09
5.1956428e-07
4.3447619e-09
5.1490686e-07
4.6574241e-09
5.0993583e-07
4.9710268e-09
5.0465366e-07
5.2821727e-09
4.9906575e-07
5.587903e-09
4.9318158e-07
5.8841696e-09
4.870143e-07
6.1672797e-09
4.8058083e-07
6.4334745e-09
4.7390144e-07
6.6793846e-09
4.6699971e-07
6.9017253e-09
4.5990011e-07
7.0995919e-09
4.5262679e-07
7.273325e-09
4.4520059e-07
7.426193e-09
4.3763841e-07
7.5621837e-09
4.2995474e-07
7.6836782e-09
4.2216147e-07
7.7932707e-09
4.1426398e-07
7.8974847e-09
4.0627045e-07
7.9935376e-09
3.9821656e-07
8.0538859e-09
3.9016157e-07
8.055002e-09
3.8212772e-07
8.0338484e-09
3.740782e-07
8.049523e-09
3.6596626e-07
8.1119512e-09
3.577721e-07
8.1941648e-09
3.4950189e-07
8.2702162e-09
3.4118183e-07
8.3200749e-09
3.3285078e-07
8.3310535e-09
3.2455203e-07
8.2987575e-09
3.1632474e-07
8.2273039e-09
3.0820131e-07
8.1234286e-09
3.0021273e-07
7.9885909e-09
2.9237873e-07
7.8339946e-09
2.8469382e-07
7.6849209e-09
2.771356e-07
7.5582178e-09
2.6967367e-07
7.4619385e-09
2.6227444e-07
7.399233e-09
2.5490769e-07
7.3667486e-09
2.4754514e-07
7.3625537e-09
2.4016483e-07
7.3803156e-09
2.327495e-07
7.4153303e-09
2.252905e-07
7.4590009e-09
2.1778719e-07
7.5033092e-09
2.1025238e-07
7.5348131e-09
2.0271399e-07
7.5383925e-09
1.9519482e-07
7.5191714e-09
1.8772502e-07
7.4697981e-09
1.8034557e-07
7.3794574e-09
1.7310204e-07
7.2435254e-09
1.6603848e-07
7.0635636e-09
1.5919544e-07
6.8430386e-09
1.5260398e-07
6.5914609e-09
1.4628762e-07
6.3163541e-09
1.4025678e-07
6.0308383e-09
1.3451085e-07
5.7459255e-09
1.2903441e-07
5.4764335e-09
1.237992e-07
5.2352125e-09
1.1876495e-07
5.0342405e-09
1.1387992e-07
4.8850333e-09
1.0908434e-07
4.7955797e-09
1.0431036e-07
4.7739772e-09
9.9486809e-08
4.8235519e-09
9.4540025e-08
4.9467885e-09
8.939718e-08
5.1428446e-09
8.3987948e-08
5.4092402e-09
7.8247105e-08
5.7408452e-09
7.2117039e-08
6.1300753e-09
6.5548076e-08
6.568969e-09
5.8502515e-08
7.0455725e-09
5.0952091e-08
7.5504296e-09
4.288605e-08
8.0660498e-09
3.4301083e-08
8.584974e-09
2.5218283e-08
9.0828105e-09
1.5659146e-08
9.5591439e-09
5.6846441e-09
9.9745101e-09
-4.661573e-09
1.0346225e-08
-1.527195e-08
1.0610385e-08
-2.6093148e-08
1.0821205e-08
-3.6953674e-08
1.0860532e-08
-4.7787128e-08
1.0833461e-08
-5.8344377e-08
1.0557254e-08
-6.8551451e-08
1.0207081e-08
-7.8103775e-08
9.5523298e-09
-8.6947677e-08
8.8439082e-09
-9.4751864e-08
7.8041927e-09
-1.0157728e-07
6.8254198e-09
-1.0700859e-07
5.431316e-09
-1.1130621e-07
4.2976333e-09
-1.1322508e-07
1.9188737e-09
-1.1115063e-07
-2.0744438e-09
-1.1487492e-07
3.7242923e-09
-1.2449791e-07
9.622988e-09
-1.4350028e-07
1.9002374e-08
-1.8260112e-07
3.9100853e-08
-2.4856249e-07
6.5961374e-08
-3.1822437e-07
6.9661876e-08
-3.5256008e-07
3.4335719e-08
-3.346795e-07
-1.7880572e-08
-2.7355583e-07
-6.112367e-08
-1.8755719e-07
-8.5998638e-08
-9.1734191e-08
-9.5822997e-08
-2.1915811e-10
-9.1515027e-08
7.7390067e-08
-7.7609222e-08
1.4158332e-07
-6.419325e-08
1.9601193e-07
-5.4428607e-08
2.4352164e-07
-4.7509695e-08
2.8503446e-07
-4.1512823e-08
3.2091564e-07
-3.5881173e-08
3.5178759e-07
-3.087195e-08
3.7830623e-07
-2.6518627e-08
4.0113228e-07
-2.2826052e-08
4.208577e-07
-1.9725403e-08
4.3793568e-07
-1.7077981e-08
4.5271039e-07
-1.4774686e-08
4.6533818e-07
-1.2627799e-08
4.7585356e-07
-1.0515376e-08
4.8379339e-07
-7.9398232e-09
4.8798798e-07
-4.1945899e-09
4.894585e-07
-1.4705139e-09
4.9014974e-07
-6.9124434e-10
4.9092174e-07
-7.7199572e-10
4.9224596e-07
-1.3242163e-09
4.9447712e-07
-2.2311513e-09
4.9789291e-07
-3.4157558e-09
5.0280867e-07
-4.9157871e-09
5.0963315e-07
-6.8244495e-09
5.1873795e-07
-9.1048186e-09
5.3084001e-07
-1.2102021e-08
5.4680358e-07
-1.5963603e-08
5.6873138e-07
-2.1927745e-08
6.0016513e-07
-3.1433792e-08
6.3919521e-07
-3.9030084e-08
6.8328819e-07
-4.4092978e-08
7.328701e-07
-4.9581905e-08
7.8922113e-07
-5.6351024e-08
8.5390215e-07
-6.4681014e-08
9.2877483e-07
-7.4872683e-08
1.0160969e-06
-8.7322092e-08
1.1177388e-06
-1.0164183e-07
1.2315653e-06
-1.138266e-07
1.3509107e-06
-1.1934517e-07
1.4585771e-06
-1.0766663e-07
1.5190688e-06
-6.049166e-08
1.4610658e-06
5.8003006e-08
1.2403305e-06
2.2073531e-07
9.1891088e-07
3.214196e-07
5.9213886e-07
3.2677201e-07
2.8207578e-07
3.1006308e-07
8.2115455e-08
1.9996032e-07
-1.0628846e-07
1.8840391e-07
-1.5463315e-07
4.8344687e-08
-2.0931138e-07
5.4678235e-08
4.0324192e-08
-6.3227552e-07
-1.2014495e-07
-7.1878885e-07
1.0932557e-07
-5.3996127e-07
-2.2762139e-07
-5.7571705e-07
3.753833e-08
-4.7407047e-07
-1.2978073e-07
-5.3650692e-07
7.6132216e-08
-4.7787601e-07
-7.5776229e-08
-4.2431046e-07
-7.5223576e-08
-3.4968406e-07
-9.7509287e-08
-3.3231755e-07
-2.4558562e-08
-3.1683997e-07
-1.9469571e-08
-3.132794e-07
-5.5424688e-09
-3.3222776e-07
2.5960078e-08
-3.8165352e-07
6.5636469e-08
-4.0441931e-07
3.1317649e-08
-2.8790176e-07
-1.5530116e-07
1.4933159e-07
-5.81993e-07
8.6192388e-07
-9.4853543e-07
1.571365e-06
-9.4445188e-07
1.9088412e-06
-4.4623197e-07
1.5475021e-06
4.8989591e-07
7.2777091e-07
1.0959803e-06
1.7119866e-07
7.3504603e-07
1.3382233e-07
4.5120622e-08
3.3956205e-07
-2.7415764e-07
5.8815412e-07
-3.3175974e-07
7.5460136e-07
-2.2183309e-07
8.2715991e-07
-9.8570903e-08
7.8843653e-07
4.5767866e-08
5.0134023e-07
3.7458176e-07
-1.6554351e-08
6.8196544e-07
-6.5003097e-07
8.382632e-07
-1.3193309e-06
8.8784735e-07
-1.9708408e-06
8.6613898e-07
-2.5705815e-06
7.9881452e-07
-3.0882185e-06
6.9071895e-07
-3.5060655e-06
5.5835192e-07
-3.8274148e-06
4.3027588e-07
-4.0594519e-06
3.1149689e-07
-4.2083884e-06
2.0084972e-07
-4.2817178e-06
9.5849051e-08
-4.2877385e-06
1.0164915e-08
-4.2349383e-06
-6.8418952e-08
-4.1326713e-06
-1.345754e-07
-3.9912823e-06
-1.8693114e-07
-3.8211337e-06
-2.2548051e-07
-3.6321184e-06
-2.5082982e-07
-3.4364392e-06
-2.5987469e-07
-3.2446985e-06
-2.5454539e-07
-3.056319e-06
-2.5011724e-07
-2.8698529e-06
-2.4760115e-07
-2.6861284e-06
-2.4397927e-07
-2.5058599e-06
-2.3937815e-07
-2.3294336e-06
-2.342559e-07
-2.1567359e-06
-2.2927615e-07
-1.9872213e-06
-2.2500027e-07
-1.8200839e-06
-2.2180153e-07
-1.6541027e-06
-2.2019966e-07
-1.4878508e-06
-2.2050556e-07
-1.3196095e-06
-2.2305658e-07
-1.1468188e-06
-2.2899783e-07
-9.6348328e-07
-2.4283573e-07
-7.5773745e-07
-2.7238417e-07
-5.2882195e-07
-3.0349415e-07
-2.9399088e-07
-3.1173877e-07
-7.0123938e-08
-2.973915e-07
1.3605509e-07
-2.7397894e-07
3.246711e-07
-2.5062156e-07
4.9654298e-07
-2.2834952e-07
6.5223147e-07
-2.0681131e-07
7.9229122e-07
-1.8601745e-07
9.1760796e-07
-1.6639759e-07
1.0291158e-06
-1.4802534e-07
1.1278913e-06
-1.3108601e-07
1.2150001e-06
-1.1556788e-07
1.2915276e-06
-1.0149576e-07
1.3585077e-06
-8.8801385e-08
1.4169341e-06
-7.7430941e-08
1.4677285e-06
-6.7287842e-08
1.5117473e-06
-5.8285337e-08
1.5497777e-06
-5.0330233e-08
1.5825419e-06
-4.3337149e-08
1.6106697e-06
-3.7182052e-08
1.6347119e-06
-3.1759353e-08
1.6551662e-06
-2.6998739e-08
1.6724853e-06
-2.283991e-08
1.6870748e-06
-1.9220037e-08
1.6992965e-06
-1.6080946e-08
1.7094681e-06
-1.336383e-08
1.7178689e-06
-1.1017971e-08
1.7247401e-06
-8.9922313e-09
1.7302914e-06
-7.2448248e-09
1.7347009e-06
-5.7339335e-09
1.7381199e-06
-4.4240205e-09
1.7406744e-06
-3.2813009e-09
1.7424704e-06
-2.2794441e-09
1.7435937e-06
-1.3912572e-09
1.7441114e-06
-5.92249e-10
1.7440755e-06
1.3738672e-10
1.7435257e-06
8.1434802e-10
1.7424896e-06
1.4548747e-09
1.7409826e-06
2.0743082e-09
1.7390101e-06
2.6868451e-09
1.7365698e-06
3.301825e-09
1.7336486e-06
3.9344139e-09
1.7302252e-06
4.5946806e-09
1.7262697e-06
5.2943756e-09
1.7217481e-06
6.0387545e-09
1.7166204e-06
6.8361264e-09
1.7108431e-06
7.6906318e-09
1.7043711e-06
8.6045337e-09
1.6971597e-06
9.5775678e-09
1.6891636e-06
1.0610328e-08
1.6803399e-06
1.1699681e-08
1.6706492e-06
1.2840896e-08
1.6600561e-06
1.4028957e-08
1.6485295e-06
1.525818e-08
1.6360443e-06
1.6520511e-08
1.6225822e-06
1.7806826e-08
1.6081339e-06
1.9105745e-08
1.5926975e-06
2.0407441e-08
1.5762807e-06
2.169889e-08
1.5589016e-06
2.2967033e-08
1.540591e-06
2.4194798e-08
1.521392e-06
2.5366305e-08
1.5013588e-06
2.6466676e-08
1.4805567e-06
2.7481387e-08
1.4590618e-06
2.8396704e-08
1.4369526e-06
2.9208797e-08
1.4143056e-06
2.9920317e-08
1.391187e-06
3.054477e-08
1.3676504e-06
3.1098799e-08
1.3437405e-06
3.159353e-08
1.3194913e-06
3.2042498e-08
1.2949179e-06
3.2470925e-08
1.2700474e-06
3.2863985e-08
1.2449889e-06
3.3112384e-08
1.2199069e-06
3.3136997e-08
1.1948511e-06
3.3089673e-08
1.16971e-06
3.3190678e-08
1.1443534e-06
3.3468528e-08
1.1187315e-06
3.3816033e-08
1.0928723e-06
3.4129448e-08
1.0668635e-06
3.4328941e-08
1.0408287e-06
3.4365805e-08
1.014903e-06
3.4224451e-08
9.8920909e-07
3.3921263e-08
9.6384874e-07
3.3483782e-08
9.3891789e-07
3.2919446e-08
9.1447708e-07
3.2274811e-08
8.9051273e-07
3.1649271e-08
8.6696109e-07
3.1109861e-08
8.4373351e-07
3.0689524e-08
8.2073288e-07
3.039987e-08
7.9787031e-07
3.0229321e-08
7.7506498e-07
3.0167894e-08
7.522526e-07
3.0192697e-08
7.2938424e-07
3.0283697e-08
7.0643531e-07
3.0407935e-08
6.8340726e-07
3.0531353e-08
6.6034128e-07
3.0600794e-08
6.3731627e-07
3.0563409e-08
6.1440424e-07
3.0431201e-08
5.916952e-07
3.0178841e-08
5.6931024e-07
2.976442e-08
5.4738121e-07
2.9172553e-08
5.2603368e-07
2.8411089e-08
5.0538066e-07
2.7496061e-08
4.855073e-07
2.6464824e-08
4.6647215e-07
2.5351499e-08
4.4829628e-07
2.4206704e-08
4.309657e-07
2.3076496e-08
4.1442376e-07
2.2018371e-08
3.9857439e-07
2.108458e-08
3.8328638e-07
2.0322237e-08
3.6839653e-07
1.9774891e-08
3.5371736e-07
1.947474e-08
3.3903948e-07
1.9451866e-08
3.2414328e-07
1.9719739e-08
3.0880501e-07
2.0285064e-08
2.9280339e-07
2.1144462e-08
2.7592607e-07
2.228658e-08
2.5797614e-07
2.3690777e-08
2.387816e-07
2.5324625e-08
2.1819386e-07
2.7156715e-08
1.9610135e-07
2.9138099e-08
1.7241911e-07
3.1232681e-08
1.4711848e-07
3.3366688e-08
1.2018847e-07
3.5514994e-08
9.1698061e-08
3.7573233e-08
6.1706671e-08
3.9550543e-08
3.0410497e-08
4.1270695e-08
-2.072212e-09
4.2828945e-08
-3.5392235e-08
4.3930419e-08
-6.9421734e-08
4.4850714e-08
-1.0358897e-07
4.5027778e-08
-1.3776094e-07
4.500544e-08
-1.7107569e-07
4.3872012e-08
-2.0343841e-07
4.2569806e-08
-2.3372532e-07
3.9839244e-08
-2.6200509e-07
3.7123689e-08
-2.8692641e-07
3.2725525e-08
-3.0908052e-07
2.8979532e-08
-3.2661335e-07
2.2964162e-08
-3.4104111e-07
1.87254e-08
-3.4758787e-07
8.4656338e-09
-3.4298478e-07
-6.6775233e-09
-3.5558128e-07
1.63208e-08
-3.8666526e-07
4.0706973e-08
-4.4611984e-07
7.8456949e-08
-5.6700266e-07
1.5998368e-07
-7.6659945e-07
2.6555817e-07
-9.7327357e-07
2.7633601e-07
-1.0705534e-06
1.3161555e-07
-1.0106461e-06
-7.7787831e-08
-8.216081e-07
-2.501617e-07
-5.5868198e-07
-3.4892475e-07
-2.6652826e-07
-3.8797671e-07
1.1633934e-08
-3.6967722e-07
2.470569e-07
-3.1303219e-07
4.4209908e-07
-2.5923543e-07
6.0785268e-07
-2.2018221e-07
7.526863e-07
-1.9234329e-07
8.7938631e-07
-1.6821285e-07
9.8907178e-07
-1.4556662e-07
1.0835945e-06
-1.253947e-07
1.1649481e-06
-1.0787223e-07
1.2351134e-06
-9.2991327e-08
1.2958679e-06
-8.0479901e-08
1.3485749e-06
-6.9784967e-08
1.3942795e-06
-6.0479253e-08
1.4334449e-06
-5.1793239e-08
1.4662062e-06
-4.3276664e-08
1.4910131e-06
-3.2746659e-08
1.5046337e-06
-1.7815211e-08
1.509962e-06
-6.7987649e-09
1.5127247e-06
-3.4540127e-09
1.515558e-06
-3.6052549e-09
1.5199482e-06
-5.7144237e-09
1.5270261e-06
-9.3089966e-09
1.537634e-06
-1.4023609e-08
1.5527602e-06
-2.0042077e-08
1.573642e-06
-2.7706218e-08
1.6014208e-06
-3.6883647e-08
1.6383346e-06
-4.9015725e-08
1.6869051e-06
-6.4534117e-08
1.7538223e-06
-8.884489e-08
1.8490279e-06
-1.2663952e-07
1.9674301e-06
-1.5743229e-07
2.1016295e-06
-1.7829228e-07
2.2528049e-06
-2.0075738e-07
2.4247486e-06
-2.2829471e-07
2.6221801e-06
-2.6211252e-07
2.8506634e-06
-3.0335591e-07
3.1170623e-06
-3.5372101e-07
3.4267691e-06
-4.1134859e-07
3.7735528e-06
-4.6061035e-07
4.1375533e-06
-4.8334549e-07
4.4667184e-06
-4.3683198e-07
4.6556806e-06
-2.494538e-07
4.4921925e-06
2.2149111e-07
3.8503745e-06
8.6255323e-07
2.8902219e-06
1.2815722e-06
1.9041754e-06
1.3128185e-06
9.4440796e-07
1.2698305e-06
3.3053969e-07
8.1382858e-07
-2.8773262e-07
8.0667622e-07
-4.1408618e-07
1.7469825e-07
-6.478516e-07
2.8844365e-07
1.0906043e-07
-1.0550912e-06
-2.4307519e-07
-1.2123101e-06
2.6654447e-07
-8.873934e-07
-5.5253809e-07
-9.7120639e-07
1.2135131e-07
-7.9025377e-07
-3.1073335e-07
-9.1538725e-07
2.012657e-07
-8.1487724e-07
-1.7628625e-07
-7.3480596e-07
-1.5529486e-07
-6.0521727e-07
-2.2709798e-07
-5.7872329e-07
-5.1052545e-08
-5.5002237e-07
-4.8170482e-08
-5.4550274e-07
-1.0061042e-08
-5.759246e-07
5.6380846e-08
-6.5997198e-07
1.4968434e-07
-6.9630502e-07
6.7650146e-08
-4.994369e-07
-3.5216989e-07
2.439853e-07
-1.3254146e-06
1.4578239e-06
-2.162374e-06
2.6678832e-06
-2.1545112e-06
3.256586e-06
-1.0349348e-06
2.6730386e-06
1.0734433e-06
1.2935006e-06
2.4755183e-06
3.2637099e-07
1.7021757e-06
2.445689e-07
1.269227e-07
5.917141e-07
-6.2130285e-07
1.0123429e-06
-7.5238846e-07
1.2941832e-06
-5.0367353e-07
1.4101014e-06
-2.1448949e-07
1.3234565e-06
1.3241324e-07
8.0653951e-07
8.9149936e-07
-1.023898e-07
1.5908941e-06
-1.1993213e-06
1.9351947e-06
-2.3496245e-06
2.0381506e-06
-3.4623182e-06
1.9788327e-06
-4.480772e-06
1.8172683e-06
-5.3550735e-06
1.5650204e-06
-6.0575864e-06
1.2608649e-06
-6.5944349e-06
9.671243e-07
-6.978758e-06
6.9582096e-07
-7.221693e-06
4.4378361e-07
-7.3365921e-06
2.1074531e-07
-7.337856e-06
1.1436403e-08
-7.2400306e-06
-1.6624253e-07
-7.0591308e-06
-3.1547688e-07
-6.8127588e-06
-4.3330301e-07
-6.5185314e-06
-5.1970802e-07
-6.1931783e-06
-5.7618305e-07
-5.8571772e-06
-5.9587581e-07
-5.5277381e-06
-5.839845e-07
-5.2042973e-06
-5.7355804e-07
-4.8843851e-06
-5.6751341e-07
-4.5693599e-06
-5.5900446e-07
-4.2603588e-06
-5.4837931e-07
-3.9579791e-06
-5.3663557e-07
-3.6619644e-06
-5.2529091e-07
-3.3713312e-06
-5.1563343e-07
-3.0846771e-06
-5.0845565e-07
-2.7998385e-06
-5.0503826e-07
-2.5143949e-06
-5.0594926e-07
-2.2252549e-06
-5.1219662e-07
-1.9279674e-06
-5.2628527e-07
-1.6120612e-06
-5.5874204e-07
-1.2573294e-06
-6.2711592e-07
-8.6426723e-07
-6.9655639e-07
-4.6265521e-07
-7.1335082e-07
-8.0633504e-08
-6.7941323e-07
2.7087885e-07
-6.2549132e-07
5.9252921e-07
-5.7227194e-07
8.857669e-07
-5.2158724e-07
1.1515645e-06
-4.7260895e-07
1.3908496e-06
-4.2530255e-07
1.6051287e-06
-3.806767e-07
1.7959717e-06
-3.3886834e-07
1.9651969e-06
-3.0031127e-07
2.1145986e-06
-2.6496961e-07
2.2460089e-06
-2.3290603e-07
2.3611726e-06
-2.0396509e-07
2.4617685e-06
-1.780268e-07
2.5493549e-06
-1.5487426e-07
2.625382e-06
-1.3431248e-07
2.6911836e-06
-1.1613187e-07
2.7479826e-06
-1.0013613e-07
2.7968474e-06
-8.6046882e-08
2.838714e-06
-7.3625922e-08
2.8744297e-06
-6.2714391e-08
2.9047648e-06
-5.3174982e-08
2.9304108e-06
-4.4866092e-08
2.9519847e-06
-3.7654792e-08
2.9700291e-06
-3.1408258e-08
2.985021e-06
-2.6009839e-08
2.997373e-06
-2.1344284e-08
3.0074434e-06
-1.7315174e-08
3.0155376e-06
-1.3828107e-08
3.0219139e-06
-1.0800397e-08
3.0267883e-06
-8.1557009e-09
3.0303423e-06
-5.83337e-09
3.0327226e-06
-3.7716209e-09
3.0340441e-06
-1.9137252e-09
3.0343952e-06
-2.1372092e-10
3.0338437e-06
1.3659089e-09
3.0324365e-06
2.8620467e-09
3.0301998e-06
4.3109748e-09
3.0271421e-06
5.7445803e-09
3.0232585e-06
7.1854634e-09
3.0185261e-06
8.6667756e-09
3.012907e-06
1.0213838e-08
3.0063488e-06
1.1852547e-08
2.9987917e-06
1.3595828e-08
2.9901659e-06
1.5461885e-08
2.9803953e-06
1.7461306e-08
2.9694008e-06
1.959899e-08
2.9571041e-06
2.187426e-08
2.9434266e-06
2.4287868e-08
2.928293e-06
2.683326e-08
2.9116345e-06
2.9499362e-08
2.8933893e-06
3.2274196e-08
2.8735034e-06
3.514411e-08
2.8519328e-06
3.8091068e-08
2.828646e-06
4.1093594e-08
2.8036269e-06
4.4124941e-08
2.776873e-06
4.71613e-08
2.7483986e-06
5.0173291e-08
2.718236e-06
5.3129663e-08
2.6864406e-06
5.5990182e-08
2.6530899e-06
5.8716986e-08
2.6182806e-06
6.1276006e-08
2.5821293e-06
6.3632658e-08
2.544771e-06
6.5754943e-08
2.5063461e-06
6.7633742e-08
2.4669896e-06
6.927683e-08
2.4268186e-06
7.07158e-08
2.3859274e-06
7.1989907e-08
2.3443933e-06
7.3127689e-08
2.3022709e-06
7.4164886e-08
2.2595842e-06
7.5157585e-08
2.2163815e-06
7.60667e-08
2.1728455e-06
7.6648462e-08
2.1292351e-06
7.6747391e-08
2.0856134e-06
7.6711337e-08
2.0417918e-06
7.7012313e-08
1.9975638e-06
7.769651e-08
1.9528587e-06
7.8521135e-08
1.9077367e-06
7.9251489e-08
1.862358e-06
7.9707661e-08
1.8169415e-06
7.9782291e-08
1.7717231e-06
7.9442879e-08
1.7269177e-06
7.8726657e-08
1.6827045e-06
7.7696961e-08
1.6392506e-06
7.6373384e-08
1.5966618e-06
7.4863554e-08
1.554921e-06
7.3390141e-08
1.5139261e-06
7.2104757e-08
1.4735326e-06
7.1082977e-08
1.4335824e-06
7.0350079e-08
1.3939291e-06
6.9882626e-08
1.3544411e-06
6.9655978e-08
1.3150125e-06
6.9621292e-08
1.2755639e-06
6.9732229e-08
1.2360559e-06
6.9915971e-08
1.1964943e-06
7.0092995e-08
1.1569502e-06
7.0144875e-08
1.1175516e-06
6.9962023e-08
1.0784218e-06
6.9560996e-08
1.0397117e-06
6.8888955e-08
1.0016215e-06
6.7854608e-08
9.6436591e-07
6.6428111e-08
9.2814686e-07
6.4630142e-08
8.9314235e-07
6.2500574e-08
8.5948358e-07
6.0123594e-08
8.2725341e-07
5.7581668e-08
7.964724e-07
5.4987704e-08
7.6710049e-07
5.2448402e-08
7.3902727e-07
5.0091589e-08
7.1207574e-07
4.8036108e-08
6.8601079e-07
4.6387184e-08
6.6054581e-07
4.523987e-08
6.3535405e-07
4.4666492e-08
6.1007428e-07
4.4731645e-08
5.8432883e-07
4.5465183e-08
5.5773599e-07
4.6877908e-08
5.2991912e-07
4.8961336e-08
5.0051822e-07
5.1687488e-08
4.6920004e-07
5.5008954e-08
4.3567508e-07
5.8849603e-08
3.9969339e-07
6.3138409e-08
3.6106838e-07
6.776312e-08
3.1965737e-07
7.26437e-08
2.7541499e-07
7.7609082e-08
2.2832269e-07
8.2607298e-08
1.7850132e-07
8.7394618e-08
1.2604882e-07
9.2003049e-08
7.1306166e-08
9.6013359e-08
1.4466217e-08
9.9668904e-08
-4.3862607e-08
1.0225925e-07
-1.0348553e-07
1.0447364e-07
-1.633944e-07
1.0493666e-07
-2.2340716e-07
1.050182e-07
-2.8198061e-07
1.0244547e-07
-3.3903495e-07
9.9624158e-08
-3.9251261e-07
9.331691e-08
-4.4267326e-07
8.7284342e-08
-4.8697188e-07
7.702415e-08
-5.2666149e-07
6.866915e-08
-5.5818307e-07
5.448575e-08
-5.8455702e-07
4.5099357e-08
-5.9702939e-07
2.0938015e-08
-5.9141942e-07
-1.2287487e-08
-6.1484446e-07
3.9745845e-08
-6.7032156e-07
9.6184074e-08
-7.7439961e-07
1.82535e-07
-9.8309907e-07
3.6868315e-07
-1.3216096e-06
6.0406868e-07
-1.6663097e-06
6.2103619e-07
-1.8222896e-06
2.8759543e-07
-1.712604e-06
-1.8747343e-07
-1.3860972e-06
-5.766685e-07
-9.3589135e-07
-7.9913061e-07
-4.3674706e-07
-8.8712101e-07
3.7472341e-08
-8.4389661e-07
4.3830842e-07
-7.1386826e-07
7.7093534e-07
-5.9186235e-07
1.0542382e-06
-5.0348502e-07
1.3021146e-06
-4.4021969e-07
1.5192391e-06
-3.8533739e-07
1.7074877e-06
-3.3381522e-07
1.8700058e-06
-2.879128e-07
2.0101072e-06
-2.4797359e-07
2.1311441e-06
-2.1402827e-07
2.2361321e-06
-1.8546785e-07
2.3273526e-06
-1.610055e-07
2.4066146e-06
-1.3974121e-07
2.4746375e-06
-1.1981608e-07
2.5316698e-06
-1.0030896e-07
2.5750442e-06
-7.6121048e-08
2.5994683e-06
-4.2239305e-08
2.6096805e-06
-1.7011047e-08
2.6152808e-06
-9.0542852e-09
2.6208459e-06
-9.1703773e-09
2.6289298e-06
-1.3798316e-08
2.6414661e-06
-2.1845238e-08
2.6599815e-06
-3.2539005e-08
2.6861706e-06
-4.6231165e-08
2.7221723e-06
-6.3707875e-08
2.7699533e-06
-8.4664718e-08
2.8334332e-06
-1.124956e-07
2.9167962e-06
-1.4789709e-07
3.0317753e-06
-2.0382395e-07
3.1945435e-06
-2.8940778e-07
3.3970624e-06
-3.5995116e-07
3.626944e-06
-4.0817388e-07
3.8861551e-06
-4.5996851e-07
4.1809314e-06
-5.2307103e-07
4.5193587e-06
-6.0053973e-07
4.9106384e-06
-6.9463563e-07
5.3665444e-06
-8.0962707e-07
5.8957895e-06
-9.4059359e-07
6.4878235e-06
-1.0526444e-06
7.1090385e-06
-1.1045604e-06
7.6714888e-06
-9.9928244e-07
7.9981616e-06
-5.7612651e-07
7.7361905e-06
4.8346219e-07
6.6778529e-06
1.9208908e-06
5.0673109e-06
2.8921143e-06
3.3939161e-06
2.9862133e-06
1.7411575e-06
2.922589e-06
6.7459675e-07
1.8803893e-06
-4.253583e-07
1.9066313e-06
-6.4194509e-07
3.9128503e-07
-1.0976878e-06
7.4418632e-07
1.893941e-07
-1.480617e-06
-4.0099835e-07
-1.7077389e-06
4.9366638e-07
-1.2326631e-06
-1.0276138e-06
-1.3689901e-06
2.5767831e-07
-1.111253e-06
-5.6847055e-07
-1.3084579e-06
3.9847065e-07
-1.1708031e-06
-3.1394106e-07
-1.0671689e-06
-2.5892906e-07
-8.8219013e-07
-4.1207678e-07
-8.4601933e-07
-8.7223343e-08
-8.0358674e-07
-9.0603062e-08
-7.9767548e-07
-1.5971301e-08
-8.39664e-07
9.8368332e-08
-9.5893126e-07
2.6895207e-07
-1.0084841e-06
1.1720248e-07
-7.2878597e-07
-6.3186862e-07
3.3317187e-07
-2.3873719e-06
2.0710287e-06
-3.9002308e-06
3.8063139e-06
-3.8897964e-06
4.6695557e-06
-1.8981766e-06
3.8773456e-06
1.8656534e-06
1.9264523e-06
4.4264116e-06
5.1968932e-07
3.1089386e-06
3.767004e-07
2.6991161e-07
8.6666055e-07
-1.111263e-06
1.4650031e-06
-1.350731e-06
1.8648495e-06
-9.0351996e-07
2.0188872e-06
-3.6852768e-07
1.8649369e-06
2.8636404e-07
1.0835151e-06
1.6729218e-06
-2.5656639e-07
2.930975e-06
-1.8527797e-06
3.531408e-06
-3.5135439e-06
3.6989148e-06
-5.1098695e-06
3.5751584e-06
-6.5623809e-06
3.2697796e-06
-7.8024688e-06
2.8051083e-06
-8.7937419e-06
2.2521379e-06
-9.5463069e-06
1.7196894e-06
-1.0080048e-05
1.2295625e-06
-1.0411871e-05
7.7560572e-07
-1.0561657e-05
3.6052798e-07
-1.0550315e-05
1.0186165e-10
-1.0398859e-05
-3.1769732e-07
-1.0130358e-05
-5.8397901e-07
-9.7699526e-06
-7.9370871e-07
-9.3426991e-06
-9.4696175e-07
-8.8724647e-06
-1.0464175e-06
-8.3879202e-06
-1.0804203e-06
-7.9127402e-06
-1.0591646e-06
-7.4463784e-06
-1.0399198e-06
-6.9854564e-06
-1.0284354e-06
-6.531796e-06
-1.0126648e-06
-6.0869123e-06
-9.9326308e-07
-5.6515632e-06
-9.7198471e-07
-5.2253174e-06
-9.5153667e-07
-4.806676e-06
-9.3427494e-07
-4.3935933e-06
-9.2153836e-07
-3.9828778e-06
-9.1575376e-07
-3.5710517e-06
-9.1777537e-07
-3.1534764e-06
-9.2977198e-07
-2.7236452e-06
-9.5611655e-07
-2.2662522e-06
-1.016135e-06
-1.7526252e-06
-1.140743e-06
-1.1856067e-06
-1.263575e-06
-6.0841919e-07
-1.2905383e-06
-6.0528865e-08
-1.2273036e-06
4.431818e-07
-1.129202e-06
9.0424369e-07
-1.0333339e-06
1.3248268e-06
-9.4217043e-07
1.7063177e-06
-8.5409986e-07
2.0500285e-06
-7.6901339e-07
2.3580983e-06
-6.8874653e-07
2.6327468e-06
-6.1351684e-07
2.8765476e-06
-5.4411201e-07
3.0920396e-06
-4.8046168e-07
3.2818179e-06
-4.2268436e-07
3.4483569e-06
-3.7050404e-07
3.5940383e-06
-3.2370819e-07
3.7210762e-06
-2.8191225e-07
3.8315335e-06
-2.4476982e-07
3.9273094e-06
-2.1190773e-07
4.0101441e-06
-1.8297081e-07
4.0815611e-06
-1.5746388e-07
4.1428974e-06
-1.3496226e-07
4.1953651e-06
-1.1518208e-07
4.2400667e-06
-9.7876574e-08
4.2779934e-06
-8.2792726e-08
4.3100295e-06
-6.9690944e-08
4.3369546e-06
-5.8333327e-08
4.3594534e-06
-4.8508597e-08
4.3781195e-06
-4.0010467e-08
4.3934681e-06
-3.2663758e-08
4.4059391e-06
-2.62991e-08
4.4159043e-06
-2.0765553e-08
4.4236745e-06
-1.592593e-08
4.4295111e-06
-1.1669945e-08
4.4336258e-06
-7.8863574e-09
4.436184e-06
-4.4718759e-09
4.4373119e-06
-1.3416326e-09
4.4371066e-06
1.571264e-09
4.4356362e-06
4.3324433e-09
4.4329379e-06
7.0092499e-09
4.4290233e-06
9.6591717e-09
4.4238841e-06
1.232469e-08
4.4174867e-06
1.5064157e-08
4.4097747e-06
1.7925789e-08
4.4006715e-06
2.0955748e-08
4.3900886e-06
2.4178752e-08
4.3779237e-06
2.7626833e-08
4.3640647e-06
3.132031e-08
4.3483957e-06
3.5267928e-08
4.3308015e-06
3.9468502e-08
4.3111668e-06
4.3922581e-08
4.2893812e-06
4.8618859e-08
4.2653435e-06
5.3537072e-08
4.2389627e-06
5.865491e-08
4.2101601e-06
6.3946757e-08
4.1788712e-06
6.9379971e-08
4.1450497e-06
7.4915086e-08
4.1086719e-06
8.0502746e-08
4.0697354e-06
8.6097769e-08
4.0282618e-06
9.1646902e-08
3.9842998e-06
9.7091675e-08
3.9379325e-06
1.0235754e-07
3.8892759e-06
1.073735e-07
3.838475e-06
1.1207697e-07
3.7857042e-06
1.1640347e-07
3.731165e-06
1.2029412e-07
3.6750669e-06
1.2373186e-07
3.617611e-06
1.2673274e-07
3.5589713e-06
1.293555e-07
3.4992877e-06
1.3167348e-07
3.4386713e-06
1.3374409e-07
3.3771968e-06
1.3563939e-07
3.3148954e-06
1.3745897e-07
3.2518366e-06
1.3912554e-07
3.1882739e-06
1.4021115e-07
3.1245486e-06
1.4047262e-07
3.0607245e-06
1.4053552e-07
2.9965338e-06
1.4120303e-07
2.9317009e-06
1.4252938e-07
2.8661439e-06
1.4407811e-07
2.7999663e-06
1.4542916e-07
2.7334121e-06
1.4626187e-07
2.6668066e-06
1.4638781e-07
2.6004971e-06
1.4575236e-07
2.5348011e-06
1.444227e-07
2.4699845e-06
1.4251351e-07
2.4062936e-06
1.4006431e-07
2.3438866e-06
1.3727059e-07
2.2827488e-06
1.3452795e-07
2.2227452e-06
1.321084e-07
2.1636796e-06
1.3014856e-07
2.1053363e-06
1.2869338e-07
2.0475138e-06
1.2770509e-07
1.9900313e-06
1.2713854e-07
1.9327425e-06
1.2691006e-07
1.8755384e-06
1.2693634e-07
1.818365e-06
1.2708935e-07
1.7612338e-06
1.2722417e-07
1.704246e-06
1.2713274e-07
1.6475765e-06
1.2663146e-07
1.5914e-06
1.2573756e-07
1.5359279e-06
1.2436103e-07
1.481437e-06
1.2234552e-07
1.42822e-06
1.1964516e-07
1.3765481e-06
1.1630201e-07
1.3266559e-06
1.1239271e-07
1.278711e-06
1.0806858e-07
1.2328089e-06
1.0348369e-07
1.1889576e-06
9.8839091e-08
1.1470774e-06
9.4328588e-08
1.1069908e-06
9.0178147e-08
1.0684266e-06
8.660031e-08
1.0310327e-06
8.3781052e-08
9.943868e-07
8.1885789e-08
9.5801134e-07
8.104194e-08
9.2138305e-07
8.1359948e-08
8.83957e-07
8.289122e-08
8.4518559e-07
8.5649322e-08
8.0453011e-07
8.9616815e-08
7.6147753e-07
9.4740088e-08
7.1555388e-07
1.0093261e-07
6.6634879e-07
1.080547e-07
6.1350872e-07
1.1597849e-07
5.5677056e-07
1.2450129e-07
4.9593323e-07
1.3348104e-07
4.3093457e-07
1.4260775e-07
3.6174941e-07
1.5179247e-07
2.8855228e-07
1.6059176e-07
2.1148258e-07
1.6907276e-07
1.3103074e-07
1.7646522e-07
4.7470591e-08
1.8322906e-07
-3.8322717e-08
1.8805257e-07
-1.2608319e-07
1.9223412e-07
-2.143497e-07
1.9320318e-07
-3.0288129e-07
1.935498e-07
-3.8942251e-07
1.889867e-07
-4.7389148e-07
1.8409314e-07
-5.5325094e-07
1.7267637e-07
-6.2792337e-07
1.6195678e-07
-6.9411941e-07
1.432202e-07
-7.5371246e-07
1.2826221e-07
-8.0139512e-07
1.0216842e-07
-8.4163084e-07
8.5335092e-08
-8.6165746e-07
4.0964641e-08
-8.5671329e-07
-1.7231653e-08
-8.9323932e-07
7.6271876e-08
-9.7622776e-07
1.7917253e-07
-1.1295213e-06
3.3582854e-07
-1.4320516e-06
6.7121345e-07
-1.9140926e-06
1.0861097e-06
-2.3965785e-06
1.1035221e-06