/*--------------------------------*- C++ -*----------------------------------*\
| =========                 |                                                 |
| \\      /  F ield         | OpenFOAM: The Open Source CFD Toolbox           |
|  \\    /   O peration     | Version:  2006                                  |
|   \\  /    A nd           | Website:  www.openfoam.com                      |
|    \\/     M anipulation  |                                                 |
\*---------------------------------------------------------------------------*/
FoamFile
{
    version     2.0;
    format      ascii;
    class       volScalarField;
    location    "20000";
    object      epsilon;
}
// * * * * * * * * * * * * * * * * * * * * * * * * * * * * * * * * * * * * * //

dimensions      [0 2 -3 0 0 0 0];


internalField   nonuniform List<scalar> 
14751
(
3.95708e-06
3.94634e-06
3.93846e-06
3.9251e-06
3.90985e-06
3.89204e-06
3.87093e-06
3.8482e-06
3.82367e-06
3.79783e-06
3.77116e-06
3.74463e-06
3.71876e-06
3.69391e-06
3.67022e-06
3.64629e-06
3.62253e-06
3.59888e-06
3.57575e-06
3.55297e-06
3.53087e-06
3.50963e-06
3.48936e-06
3.46987e-06
3.45129e-06
3.43388e-06
3.41768e-06
3.40275e-06
3.38902e-06
3.37636e-06
3.36478e-06
3.35423e-06
3.34469e-06
3.33613e-06
3.3285e-06
3.32193e-06
3.31628e-06
3.31146e-06
3.30744e-06
3.3044e-06
3.30228e-06
3.30081e-06
3.29997e-06
3.29961e-06
3.29983e-06
3.30075e-06
3.30236e-06
3.30467e-06
3.3077e-06
3.31142e-06
3.31578e-06
3.3207e-06
3.3262e-06
3.33232e-06
3.33906e-06
3.34644e-06
3.35443e-06
3.36306e-06
3.37233e-06
3.38204e-06
3.39221e-06
3.40285e-06
3.41399e-06
3.42591e-06
3.43851e-06
3.45163e-06
3.46523e-06
3.47942e-06
3.49412e-06
3.50924e-06
3.52475e-06
3.54063e-06
3.55686e-06
3.57344e-06
3.59039e-06
3.60777e-06
3.62569e-06
3.64428e-06
3.66379e-06
3.68433e-06
3.70595e-06
3.72789e-06
3.74968e-06
3.77118e-06
3.79234e-06
3.81301e-06
3.83307e-06
3.85247e-06
3.87114e-06
3.8888e-06
3.90526e-06
3.9196e-06
3.93176e-06
3.94183e-06
3.94905e-06
3.95418e-06
3.95594e-06
3.9558e-06
3.95464e-06
1.91185e-06
1.90717e-06
1.90168e-06
1.89346e-06
1.88373e-06
1.87252e-06
1.85987e-06
1.84638e-06
1.83216e-06
1.81743e-06
1.80246e-06
1.78764e-06
1.77324e-06
1.75935e-06
1.74601e-06
1.73273e-06
1.71965e-06
1.7068e-06
1.69432e-06
1.68215e-06
1.67041e-06
1.65919e-06
1.64851e-06
1.63831e-06
1.62862e-06
1.61956e-06
1.61115e-06
1.60339e-06
1.59627e-06
1.58971e-06
1.5837e-06
1.57823e-06
1.57327e-06
1.56882e-06
1.56484e-06
1.56139e-06
1.55841e-06
1.55585e-06
1.5537e-06
1.55203e-06
1.55081e-06
1.54993e-06
1.54935e-06
1.54903e-06
1.54899e-06
1.54929e-06
1.54993e-06
1.55091e-06
1.55223e-06
1.55387e-06
1.55584e-06
1.55809e-06
1.56062e-06
1.56347e-06
1.56663e-06
1.5701e-06
1.57389e-06
1.57799e-06
1.58242e-06
1.58708e-06
1.59199e-06
1.59715e-06
1.6026e-06
1.60845e-06
1.61468e-06
1.6212e-06
1.62802e-06
1.63517e-06
1.64265e-06
1.6504e-06
1.65842e-06
1.6667e-06
1.67525e-06
1.68406e-06
1.69316e-06
1.70256e-06
1.71233e-06
1.72251e-06
1.7332e-06
1.74444e-06
1.75622e-06
1.76825e-06
1.78034e-06
1.79244e-06
1.8045e-06
1.81645e-06
1.82824e-06
1.83982e-06
1.85114e-06
1.86204e-06
1.8724e-06
1.88184e-06
1.89024e-06
1.89756e-06
1.90347e-06
1.90802e-06
1.91071e-06
1.91194e-06
1.91209e-06
1.07694e-06
1.0738e-06
1.06861e-06
1.06158e-06
1.05304e-06
1.04356e-06
1.03328e-06
1.02244e-06
1.01119e-06
9.99743e-07
9.88254e-07
9.76941e-07
9.65955e-07
9.55365e-07
9.45167e-07
9.35176e-07
9.25445e-07
9.16016e-07
9.06934e-07
8.98198e-07
8.89847e-07
8.8192e-07
8.74424e-07
8.67339e-07
8.60675e-07
8.5447e-07
8.48721e-07
8.43429e-07
8.38574e-07
8.34122e-07
8.3006e-07
8.26375e-07
8.23051e-07
8.20075e-07
8.17435e-07
8.15136e-07
8.13155e-07
8.11465e-07
8.10059e-07
8.08954e-07
8.08133e-07
8.07548e-07
8.07184e-07
8.07021e-07
8.07064e-07
8.07337e-07
8.07833e-07
8.0855e-07
8.09479e-07
8.10654e-07
8.12042e-07
8.13631e-07
8.15418e-07
8.17417e-07
8.19627e-07
8.22049e-07
8.24686e-07
8.27538e-07
8.30604e-07
8.3386e-07
8.37303e-07
8.40949e-07
8.44808e-07
8.4892e-07
8.53283e-07
8.57868e-07
8.62678e-07
8.67725e-07
8.73013e-07
8.78521e-07
8.84252e-07
8.90206e-07
8.96386e-07
9.02798e-07
9.09452e-07
9.16365e-07
9.23562e-07
9.31081e-07
9.38956e-07
9.47212e-07
9.55814e-07
9.64642e-07
9.73581e-07
9.82603e-07
9.91674e-07
1.00074e-06
1.00977e-06
1.0187e-06
1.02748e-06
1.03602e-06
1.04419e-06
1.05183e-06
1.05879e-06
1.06497e-06
1.07019e-06
1.07427e-06
1.077e-06
1.07841e-06
1.0785e-06
7.2791e-07
7.2461e-07
7.19444e-07
7.13e-07
7.0532e-07
6.96928e-07
6.88049e-07
6.7885e-07
6.695e-07
6.60069e-07
6.50686e-07
6.41502e-07
6.32627e-07
6.24134e-07
6.16044e-07
6.08214e-07
6.00667e-07
5.93435e-07
5.86535e-07
5.79977e-07
5.73774e-07
5.67943e-07
5.62484e-07
5.57389e-07
5.52657e-07
5.48297e-07
5.443e-07
5.40659e-07
5.3736e-07
5.34383e-07
5.31716e-07
5.29348e-07
5.27267e-07
5.2546e-07
5.23918e-07
5.22635e-07
5.21596e-07
5.20787e-07
5.20202e-07
5.19839e-07
5.19686e-07
5.19724e-07
5.19944e-07
5.20338e-07
5.20904e-07
5.21648e-07
5.2256e-07
5.23645e-07
5.2492e-07
5.26367e-07
5.27977e-07
5.29743e-07
5.31664e-07
5.33742e-07
5.35978e-07
5.38369e-07
5.40916e-07
5.43617e-07
5.4647e-07
5.49468e-07
5.52605e-07
5.5589e-07
5.59323e-07
5.62914e-07
5.66662e-07
5.70556e-07
5.74596e-07
5.78783e-07
5.83119e-07
5.87596e-07
5.92212e-07
5.96967e-07
6.01863e-07
6.06903e-07
6.12094e-07
6.17446e-07
6.22975e-07
6.28703e-07
6.34654e-07
6.40846e-07
6.47268e-07
6.5383e-07
6.60433e-07
6.67054e-07
6.73664e-07
6.80225e-07
6.86701e-07
6.93048e-07
6.99205e-07
7.05106e-07
7.10664e-07
7.15792e-07
7.20376e-07
7.24313e-07
7.27511e-07
7.29783e-07
7.311e-07
7.31367e-07
7.30384e-07
5.76305e-07
5.72241e-07
5.66797e-07
5.60498e-07
5.533e-07
5.45658e-07
5.37736e-07
5.29652e-07
5.21564e-07
5.13574e-07
5.05774e-07
4.98227e-07
4.91016e-07
4.8423e-07
4.77928e-07
4.71932e-07
4.66244e-07
4.60881e-07
4.5585e-07
4.51155e-07
4.46799e-07
4.42784e-07
4.39106e-07
4.35757e-07
4.32731e-07
4.30025e-07
4.27627e-07
4.25527e-07
4.23714e-07
4.22171e-07
4.2089e-07
4.19858e-07
4.19065e-07
4.18501e-07
4.18155e-07
4.18021e-07
4.18086e-07
4.18341e-07
4.18778e-07
4.19393e-07
4.20175e-07
4.21114e-07
4.22203e-07
4.23436e-07
4.24807e-07
4.26316e-07
4.27963e-07
4.29746e-07
4.31659e-07
4.33696e-07
4.35849e-07
4.38115e-07
4.40489e-07
4.42969e-07
4.45551e-07
4.48233e-07
4.5101e-07
4.53879e-07
4.56835e-07
4.59873e-07
4.62989e-07
4.66182e-07
4.69448e-07
4.72787e-07
4.76196e-07
4.79666e-07
4.83196e-07
4.86783e-07
4.90424e-07
4.94113e-07
4.97847e-07
5.01624e-07
5.05442e-07
5.09301e-07
5.13204e-07
5.17157e-07
5.21168e-07
5.25254e-07
5.29434e-07
5.33736e-07
5.38188e-07
5.42693e-07
5.47138e-07
5.51504e-07
5.55764e-07
5.5989e-07
5.63852e-07
5.67616e-07
5.71146e-07
5.74386e-07
5.7728e-07
5.79762e-07
5.81759e-07
5.83212e-07
5.8404e-07
5.84166e-07
5.83549e-07
5.82099e-07
5.79725e-07
4.95958e-07
4.91169e-07
4.85273e-07
4.78808e-07
4.71706e-07
4.64393e-07
4.56998e-07
4.4962e-07
4.42398e-07
4.35405e-07
4.28712e-07
4.22388e-07
4.16504e-07
4.11147e-07
4.0663e-07
4.02468e-07
3.98628e-07
3.95115e-07
3.91928e-07
3.89063e-07
3.86514e-07
3.84278e-07
3.82345e-07
3.80706e-07
3.79349e-07
3.78267e-07
3.77447e-07
3.76879e-07
3.7655e-07
3.76449e-07
3.76564e-07
3.76885e-07
3.77403e-07
3.78106e-07
3.78987e-07
3.80036e-07
3.81244e-07
3.82602e-07
3.84102e-07
3.85736e-07
3.87498e-07
3.89376e-07
3.91365e-07
3.93455e-07
3.95641e-07
3.97917e-07
4.00278e-07
4.02719e-07
4.05234e-07
4.07815e-07
4.10455e-07
4.13149e-07
4.15889e-07
4.1867e-07
4.21487e-07
4.24332e-07
4.272e-07
4.30085e-07
4.32981e-07
4.35882e-07
4.38782e-07
4.41679e-07
4.44565e-07
4.47439e-07
4.50296e-07
4.53129e-07
4.55936e-07
4.58713e-07
4.61457e-07
4.64162e-07
4.66826e-07
4.69446e-07
4.72019e-07
4.74544e-07
4.77021e-07
4.79453e-07
4.81851e-07
4.84226e-07
4.86605e-07
4.89045e-07
4.91713e-07
4.94502e-07
4.97169e-07
4.99692e-07
5.02049e-07
5.04219e-07
5.06178e-07
5.079e-07
5.09354e-07
5.10506e-07
5.11322e-07
5.11761e-07
5.11775e-07
5.11327e-07
5.10365e-07
5.08836e-07
5.06709e-07
5.03876e-07
5.00305e-07
4.37655e-07
4.32661e-07
4.26686e-07
4.20356e-07
4.13598e-07
4.06817e-07
4.0014e-07
3.93635e-07
3.87425e-07
3.8156e-07
3.76091e-07
3.71057e-07
3.66507e-07
3.62482e-07
3.59046e-07
3.55982e-07
3.53264e-07
3.50891e-07
3.4885e-07
3.47134e-07
3.45726e-07
3.4462e-07
3.43802e-07
3.4326e-07
3.42979e-07
3.42948e-07
3.43155e-07
3.43586e-07
3.44231e-07
3.45076e-07
3.46111e-07
3.47324e-07
3.48706e-07
3.50247e-07
3.51936e-07
3.53764e-07
3.55723e-07
3.57804e-07
3.59997e-07
3.62292e-07
3.64682e-07
3.67157e-07
3.69711e-07
3.72332e-07
3.75012e-07
3.77743e-07
3.80518e-07
3.8333e-07
3.86169e-07
3.89028e-07
3.91899e-07
3.94773e-07
3.97642e-07
4.00499e-07
4.03337e-07
4.06148e-07
4.08925e-07
4.11662e-07
4.14353e-07
4.16992e-07
4.19576e-07
4.221e-07
4.24562e-07
4.26958e-07
4.29288e-07
4.31548e-07
4.33737e-07
4.35854e-07
4.37899e-07
4.39869e-07
4.41763e-07
4.4358e-07
4.45318e-07
4.46977e-07
4.48559e-07
4.50059e-07
4.51494e-07
4.52879e-07
4.54226e-07
4.55561e-07
4.56904e-07
4.58194e-07
4.59337e-07
4.60323e-07
4.61133e-07
4.61753e-07
4.62165e-07
4.62354e-07
4.62298e-07
4.61979e-07
4.61375e-07
4.60468e-07
4.59224e-07
4.57611e-07
4.55605e-07
4.53137e-07
4.50196e-07
4.46654e-07
4.42508e-07
3.83219e-07
3.78563e-07
3.72856e-07
3.66883e-07
3.60579e-07
3.54351e-07
3.48362e-07
3.42645e-07
3.37315e-07
3.32404e-07
3.27942e-07
3.23945e-07
3.20438e-07
3.17426e-07
3.14893e-07
3.12734e-07
3.10929e-07
3.09469e-07
3.08324e-07
3.07479e-07
3.06913e-07
3.0662e-07
3.06584e-07
3.06793e-07
3.07231e-07
3.07887e-07
3.08746e-07
3.09796e-07
3.11026e-07
3.12423e-07
3.13977e-07
3.15676e-07
3.17511e-07
3.19471e-07
3.21546e-07
3.23724e-07
3.25998e-07
3.2836e-07
3.30799e-07
3.33311e-07
3.35881e-07
3.38499e-07
3.41155e-07
3.43838e-07
3.46539e-07
3.49251e-07
3.51963e-07
3.54668e-07
3.57357e-07
3.6002e-07
3.6265e-07
3.65237e-07
3.67774e-07
3.70253e-07
3.72668e-07
3.75011e-07
3.77278e-07
3.79464e-07
3.81564e-07
3.83576e-07
3.85498e-07
3.87328e-07
3.89068e-07
3.90718e-07
3.9228e-07
3.93755e-07
3.95146e-07
3.96456e-07
3.97688e-07
3.98844e-07
3.99925e-07
4.00932e-07
4.01867e-07
4.02729e-07
4.03529e-07
4.04295e-07
4.0502e-07
4.05711e-07
4.06377e-07
4.07028e-07
4.07653e-07
4.08215e-07
4.08662e-07
4.08991e-07
4.09186e-07
4.09233e-07
4.09121e-07
4.08838e-07
4.08367e-07
4.07696e-07
4.06806e-07
4.05694e-07
4.04323e-07
4.02654e-07
4.00671e-07
3.9827e-07
3.95458e-07
3.9206e-07
3.88051e-07
3.30796e-07
3.26919e-07
3.21965e-07
3.16781e-07
3.11321e-07
3.05968e-07
3.00914e-07
2.96162e-07
2.91819e-07
2.87905e-07
2.84432e-07
2.81401e-07
2.7882e-07
2.7667e-07
2.74916e-07
2.73504e-07
2.72409e-07
2.71623e-07
2.71118e-07
2.70882e-07
2.70898e-07
2.71145e-07
2.7161e-07
2.72279e-07
2.73138e-07
2.74176e-07
2.75378e-07
2.76733e-07
2.7823e-07
2.79857e-07
2.81603e-07
2.83459e-07
2.85414e-07
2.87458e-07
2.89583e-07
2.91781e-07
2.9404e-07
2.96349e-07
2.98698e-07
3.01079e-07
3.03479e-07
3.05888e-07
3.08297e-07
3.10696e-07
3.13074e-07
3.15425e-07
3.17738e-07
3.20006e-07
3.2222e-07
3.24372e-07
3.26454e-07
3.28459e-07
3.3038e-07
3.32212e-07
3.3395e-07
3.35589e-07
3.37127e-07
3.38561e-07
3.39892e-07
3.41119e-07
3.42243e-07
3.43268e-07
3.44197e-07
3.45035e-07
3.45787e-07
3.46458e-07
3.47055e-07
3.47583e-07
3.4805e-07
3.4846e-07
3.48817e-07
3.49124e-07
3.49382e-07
3.49625e-07
3.49867e-07
3.50102e-07
3.50332e-07
3.50566e-07
3.50803e-07
3.51048e-07
3.51279e-07
3.51482e-07
3.51625e-07
3.51709e-07
3.51719e-07
3.51644e-07
3.51475e-07
3.51205e-07
3.50816e-07
3.50301e-07
3.49641e-07
3.48838e-07
3.47851e-07
3.46635e-07
3.45174e-07
3.43343e-07
3.41153e-07
3.38402e-07
3.35025e-07
2.83643e-07
2.80686e-07
2.76685e-07
2.72463e-07
2.67998e-07
2.63632e-07
2.5956e-07
2.55775e-07
2.52372e-07
2.49363e-07
2.46751e-07
2.44528e-07
2.42691e-07
2.41212e-07
2.4006e-07
2.39204e-07
2.38618e-07
2.38297e-07
2.38214e-07
2.38358e-07
2.38707e-07
2.39249e-07
2.39968e-07
2.40854e-07
2.41892e-07
2.43071e-07
2.44379e-07
2.45804e-07
2.47336e-07
2.48963e-07
2.50676e-07
2.52464e-07
2.54317e-07
2.56226e-07
2.58181e-07
2.60173e-07
2.62192e-07
2.64227e-07
2.66268e-07
2.68306e-07
2.7033e-07
2.72332e-07
2.74301e-07
2.7623e-07
2.78109e-07
2.79931e-07
2.81688e-07
2.83373e-07
2.84979e-07
2.86499e-07
2.87927e-07
2.89259e-07
2.9049e-07
2.91617e-07
2.92639e-07
2.93552e-07
2.94359e-07
2.9506e-07
2.95657e-07
2.96154e-07
2.96555e-07
2.96867e-07
2.97095e-07
2.97248e-07
2.97333e-07
2.97357e-07
2.97331e-07
2.97261e-07
2.97156e-07
2.97023e-07
2.96865e-07
2.96687e-07
2.96531e-07
2.96407e-07
2.96308e-07
2.96234e-07
2.96191e-07
2.96186e-07
2.96215e-07
2.9628e-07
2.9636e-07
2.96455e-07
2.96544e-07
2.96626e-07
2.9669e-07
2.96728e-07
2.96731e-07
2.96694e-07
2.96599e-07
2.96442e-07
2.96203e-07
2.95884e-07
2.95446e-07
2.94837e-07
2.94042e-07
2.92931e-07
2.91511e-07
2.89573e-07
2.87032e-07
2.43175e-07
2.41078e-07
2.38005e-07
2.34707e-07
2.31187e-07
2.27739e-07
2.24549e-07
2.21606e-07
2.18995e-07
2.16724e-07
2.14792e-07
2.13185e-07
2.11897e-07
2.10902e-07
2.10173e-07
2.09691e-07
2.09434e-07
2.09397e-07
2.09554e-07
2.09895e-07
2.10402e-07
2.11062e-07
2.11863e-07
2.12794e-07
2.13843e-07
2.14999e-07
2.1625e-07
2.17587e-07
2.18998e-07
2.20473e-07
2.22004e-07
2.2358e-07
2.25191e-07
2.26829e-07
2.28484e-07
2.30147e-07
2.31808e-07
2.33459e-07
2.3509e-07
2.36691e-07
2.38256e-07
2.39774e-07
2.41239e-07
2.42643e-07
2.43979e-07
2.4524e-07
2.46422e-07
2.47517e-07
2.48522e-07
2.49432e-07
2.50243e-07
2.50954e-07
2.51562e-07
2.52067e-07
2.5247e-07
2.52772e-07
2.52976e-07
2.53085e-07
2.53105e-07
2.53042e-07
2.52901e-07
2.52691e-07
2.52421e-07
2.52098e-07
2.51733e-07
2.51334e-07
2.50911e-07
2.50472e-07
2.50025e-07
2.49579e-07
2.49135e-07
2.48734e-07
2.48389e-07
2.48092e-07
2.47846e-07
2.47652e-07
2.47516e-07
2.47441e-07
2.47425e-07
2.47469e-07
2.47556e-07
2.47693e-07
2.47862e-07
2.48065e-07
2.48292e-07
2.48534e-07
2.48785e-07
2.49041e-07
2.49286e-07
2.49514e-07
2.49707e-07
2.49866e-07
2.49954e-07
2.4992e-07
2.49746e-07
2.49308e-07
2.48608e-07
2.47442e-07
2.45713e-07
2.09259e-07
2.07873e-07
2.05597e-07
2.03087e-07
2.00372e-07
1.97694e-07
1.95225e-07
1.92958e-07
1.90966e-07
1.89256e-07
1.87825e-07
1.8666e-07
1.85752e-07
1.8508e-07
1.84623e-07
1.84369e-07
1.84297e-07
1.84403e-07
1.84665e-07
1.85074e-07
1.85612e-07
1.86269e-07
1.87034e-07
1.87898e-07
1.88849e-07
1.89878e-07
1.90974e-07
1.92128e-07
1.9333e-07
1.9457e-07
1.95841e-07
1.97132e-07
1.98436e-07
1.99743e-07
2.01045e-07
2.02334e-07
2.03602e-07
2.04841e-07
2.06042e-07
2.07198e-07
2.08302e-07
2.09347e-07
2.10328e-07
2.11238e-07
2.12073e-07
2.12828e-07
2.13499e-07
2.14082e-07
2.14575e-07
2.14975e-07
2.15282e-07
2.15496e-07
2.15617e-07
2.15647e-07
2.15588e-07
2.15445e-07
2.15222e-07
2.14923e-07
2.14556e-07
2.14128e-07
2.13646e-07
2.13119e-07
2.12556e-07
2.11966e-07
2.11358e-07
2.1074e-07
2.10123e-07
2.09514e-07
2.08921e-07
2.08351e-07
2.07823e-07
2.07372e-07
2.06983e-07
2.06657e-07
2.06398e-07
2.06208e-07
2.06092e-07
2.06052e-07
2.06086e-07
2.06195e-07
2.06367e-07
2.06611e-07
2.06912e-07
2.07271e-07
2.07681e-07
2.08134e-07
2.08624e-07
2.09148e-07
2.09691e-07
2.10248e-07
2.10803e-07
2.11354e-07
2.11868e-07
2.12298e-07
2.12624e-07
2.12733e-07
2.1262e-07
2.12094e-07
2.11052e-07
1.81087e-07
1.80248e-07
1.78608e-07
1.76725e-07
1.74651e-07
1.72582e-07
1.70673e-07
1.68921e-07
1.67389e-07
1.66087e-07
1.65008e-07
1.64142e-07
1.63482e-07
1.6301e-07
1.62711e-07
1.62575e-07
1.62584e-07
1.62736e-07
1.63009e-07
1.63397e-07
1.63885e-07
1.64463e-07
1.65121e-07
1.65852e-07
1.66645e-07
1.67492e-07
1.68383e-07
1.69311e-07
1.70265e-07
1.71238e-07
1.72223e-07
1.7321e-07
1.74193e-07
1.75164e-07
1.76115e-07
1.7704e-07
1.77932e-07
1.78784e-07
1.79589e-07
1.80342e-07
1.81038e-07
1.81671e-07
1.82237e-07
1.82732e-07
1.83153e-07
1.83498e-07
1.83763e-07
1.83947e-07
1.84051e-07
1.84072e-07
1.84013e-07
1.83875e-07
1.8366e-07
1.83371e-07
1.83013e-07
1.8259e-07
1.82108e-07
1.81572e-07
1.8099e-07
1.80369e-07
1.79717e-07
1.79042e-07
1.78352e-07
1.77656e-07
1.76962e-07
1.76279e-07
1.75614e-07
1.74975e-07
1.74369e-07
1.73804e-07
1.73321e-07
1.72908e-07
1.72563e-07
1.72289e-07
1.72089e-07
1.71968e-07
1.71926e-07
1.71967e-07
1.72089e-07
1.72294e-07
1.72572e-07
1.72932e-07
1.73363e-07
1.73866e-07
1.74433e-07
1.75059e-07
1.75739e-07
1.7647e-07
1.77239e-07
1.78041e-07
1.78861e-07
1.79698e-07
1.80522e-07
1.8129e-07
1.81982e-07
1.82497e-07
1.82822e-07
1.82785e-07
1.8228e-07
1.57694e-07
1.57255e-07
1.561e-07
1.54697e-07
1.53113e-07
1.51509e-07
1.50019e-07
1.48645e-07
1.47445e-07
1.46427e-07
1.45585e-07
1.44913e-07
1.44403e-07
1.44043e-07
1.43819e-07
1.43726e-07
1.43747e-07
1.4388e-07
1.44107e-07
1.44423e-07
1.44813e-07
1.45271e-07
1.45787e-07
1.46355e-07
1.46965e-07
1.47611e-07
1.48283e-07
1.48976e-07
1.4968e-07
1.5039e-07
1.51098e-07
1.51797e-07
1.52481e-07
1.53144e-07
1.5378e-07
1.54383e-07
1.54948e-07
1.55469e-07
1.55941e-07
1.56361e-07
1.56725e-07
1.57029e-07
1.57271e-07
1.57447e-07
1.57557e-07
1.57599e-07
1.57573e-07
1.57477e-07
1.57314e-07
1.57084e-07
1.56789e-07
1.56432e-07
1.56017e-07
1.55546e-07
1.55025e-07
1.54458e-07
1.53852e-07
1.53213e-07
1.52546e-07
1.51859e-07
1.5116e-07
1.50455e-07
1.49751e-07
1.49057e-07
1.4838e-07
1.47726e-07
1.47103e-07
1.46516e-07
1.45971e-07
1.45497e-07
1.45098e-07
1.44767e-07
1.44505e-07
1.44316e-07
1.44204e-07
1.44171e-07
1.44218e-07
1.44348e-07
1.4456e-07
1.44856e-07
1.45229e-07
1.45687e-07
1.46221e-07
1.46832e-07
1.47514e-07
1.48262e-07
1.49073e-07
1.49944e-07
1.50863e-07
1.51826e-07
1.5282e-07
1.53844e-07
1.54872e-07
1.55865e-07
1.56802e-07
1.57595e-07
1.58226e-07
1.58539e-07
1.58431e-07
1.38192e-07
1.38031e-07
1.37235e-07
1.36188e-07
1.3497e-07
1.33709e-07
1.32526e-07
1.31424e-07
1.30456e-07
1.2963e-07
1.28942e-07
1.28387e-07
1.2796e-07
1.2765e-07
1.27449e-07
1.2735e-07
1.2734e-07
1.27418e-07
1.27568e-07
1.27786e-07
1.28059e-07
1.2838e-07
1.28744e-07
1.29144e-07
1.29572e-07
1.30021e-07
1.30485e-07
1.30959e-07
1.31434e-07
1.31906e-07
1.32369e-07
1.32817e-07
1.33244e-07
1.33647e-07
1.3402e-07
1.34359e-07
1.3466e-07
1.34919e-07
1.35133e-07
1.35298e-07
1.35413e-07
1.35474e-07
1.35482e-07
1.35434e-07
1.35331e-07
1.35171e-07
1.34955e-07
1.34685e-07
1.34361e-07
1.33986e-07
1.33562e-07
1.33093e-07
1.32581e-07
1.32032e-07
1.31449e-07
1.30838e-07
1.30203e-07
1.2955e-07
1.28885e-07
1.28215e-07
1.27545e-07
1.26882e-07
1.26231e-07
1.256e-07
1.24994e-07
1.24419e-07
1.23881e-07
1.23386e-07
1.22941e-07
1.22574e-07
1.22272e-07
1.22034e-07
1.21865e-07
1.21766e-07
1.21741e-07
1.21791e-07
1.21919e-07
1.22126e-07
1.22412e-07
1.22779e-07
1.23223e-07
1.2375e-07
1.24352e-07
1.25032e-07
1.25784e-07
1.26605e-07
1.27492e-07
1.28442e-07
1.29445e-07
1.30499e-07
1.31592e-07
1.32721e-07
1.33866e-07
1.34992e-07
1.36077e-07
1.37045e-07
1.37873e-07
1.38423e-07
1.38593e-07
1.21832e-07
1.21857e-07
1.21319e-07
1.20531e-07
1.19579e-07
1.1857e-07
1.17605e-07
1.16696e-07
1.15886e-07
1.15187e-07
1.14594e-07
1.14105e-07
1.13715e-07
1.13419e-07
1.13206e-07
1.13075e-07
1.13013e-07
1.13019e-07
1.1308e-07
1.13193e-07
1.13346e-07
1.13535e-07
1.13754e-07
1.13997e-07
1.14258e-07
1.14532e-07
1.14813e-07
1.15097e-07
1.15377e-07
1.15649e-07
1.15909e-07
1.16151e-07
1.16373e-07
1.1657e-07
1.16738e-07
1.16875e-07
1.16978e-07
1.17043e-07
1.17069e-07
1.17054e-07
1.16996e-07
1.16894e-07
1.16748e-07
1.16557e-07
1.16322e-07
1.16043e-07
1.15722e-07
1.15358e-07
1.14955e-07
1.14515e-07
1.14041e-07
1.13535e-07
1.13001e-07
1.12442e-07
1.11864e-07
1.1127e-07
1.10665e-07
1.10054e-07
1.09441e-07
1.08832e-07
1.08232e-07
1.07646e-07
1.0708e-07
1.06538e-07
1.06025e-07
1.05547e-07
1.05108e-07
1.04711e-07
1.04379e-07
1.0411e-07
1.039e-07
1.03751e-07
1.03665e-07
1.03645e-07
1.03694e-07
1.03812e-07
1.04003e-07
1.04267e-07
1.04605e-07
1.0502e-07
1.05507e-07
1.06073e-07
1.06712e-07
1.07425e-07
1.08209e-07
1.09061e-07
1.09979e-07
1.1096e-07
1.11997e-07
1.13087e-07
1.1422e-07
1.15394e-07
1.1659e-07
1.17778e-07
1.18938e-07
1.20002e-07
1.20944e-07
1.21642e-07
1.21996e-07
1.08014e-07
1.08157e-07
1.07799e-07
1.07196e-07
1.06436e-07
1.05606e-07
1.04797e-07
1.04021e-07
1.03319e-07
1.027e-07
1.02163e-07
1.01707e-07
1.01328e-07
1.01023e-07
1.00783e-07
1.00608e-07
1.00486e-07
1.00417e-07
1.00391e-07
1.00404e-07
1.00448e-07
1.00518e-07
1.00609e-07
1.00717e-07
1.00837e-07
1.00964e-07
1.01094e-07
1.01224e-07
1.01347e-07
1.01461e-07
1.01563e-07
1.01649e-07
1.01715e-07
1.01759e-07
1.01778e-07
1.01771e-07
1.01734e-07
1.01667e-07
1.01568e-07
1.01435e-07
1.01268e-07
1.01067e-07
1.00831e-07
1.00561e-07
1.00258e-07
9.99215e-08
9.9554e-08
9.91565e-08
9.87314e-08
9.82805e-08
9.78066e-08
9.73126e-08
9.68013e-08
9.62763e-08
9.57411e-08
9.51992e-08
9.46548e-08
9.41115e-08
9.35738e-08
9.30456e-08
9.25314e-08
9.20353e-08
9.15616e-08
9.11143e-08
9.06976e-08
9.03155e-08
8.99721e-08
8.96728e-08
8.94357e-08
8.92519e-08
8.91209e-08
8.90452e-08
8.90271e-08
8.90693e-08
8.91739e-08
8.93423e-08
8.95762e-08
8.98776e-08
9.02468e-08
9.06861e-08
9.11934e-08
9.1773e-08
9.24216e-08
9.31402e-08
9.39265e-08
9.47785e-08
9.56941e-08
9.66713e-08
9.77043e-08
9.87897e-08
9.99205e-08
1.01094e-07
1.02294e-07
1.03494e-07
1.04675e-07
1.05776e-07
1.0677e-07
1.07549e-07
1.08017e-07
9.62647e-08
9.64766e-08
9.62416e-08
9.57672e-08
9.51429e-08
9.44417e-08
9.37419e-08
9.30587e-08
9.24277e-08
9.18597e-08
9.13548e-08
9.09121e-08
9.053e-08
9.02055e-08
8.99333e-08
8.97116e-08
8.95322e-08
8.93951e-08
8.92916e-08
8.92183e-08
8.91688e-08
8.91391e-08
8.91254e-08
8.91241e-08
8.91311e-08
8.9143e-08
8.9156e-08
8.9167e-08
8.91724e-08
8.91695e-08
8.91555e-08
8.91279e-08
8.90842e-08
8.90225e-08
8.89408e-08
8.88376e-08
8.87115e-08
8.85613e-08
8.83862e-08
8.81855e-08
8.7959e-08
8.77066e-08
8.74286e-08
8.71255e-08
8.67981e-08
8.64475e-08
8.60749e-08
8.56817e-08
8.527e-08
8.48416e-08
8.43988e-08
8.39442e-08
8.34801e-08
8.30097e-08
8.25357e-08
8.20611e-08
8.15893e-08
8.11234e-08
8.06667e-08
8.02228e-08
7.97949e-08
7.93867e-08
7.90015e-08
7.86426e-08
7.83134e-08
7.80173e-08
7.7757e-08
7.75447e-08
7.73832e-08
7.7268e-08
7.71999e-08
7.71815e-08
7.72148e-08
7.73022e-08
7.74456e-08
7.76464e-08
7.79062e-08
7.82269e-08
7.86092e-08
7.90552e-08
7.95636e-08
8.01381e-08
8.07767e-08
8.14804e-08
8.22475e-08
8.30767e-08
8.39664e-08
8.49149e-08
8.59176e-08
8.69715e-08
8.80709e-08
8.92131e-08
9.03841e-08
9.15607e-08
9.27235e-08
9.38205e-08
9.48229e-08
9.56347e-08
9.61649e-08
8.62136e-08
8.64598e-08
8.63053e-08
8.592e-08
8.5391e-08
8.47808e-08
8.4158e-08
8.35394e-08
8.29568e-08
8.24213e-08
8.19339e-08
8.14949e-08
8.11037e-08
8.07582e-08
8.04546e-08
8.01917e-08
7.99629e-08
7.97685e-08
7.96013e-08
7.94586e-08
7.93351e-08
7.92276e-08
7.9133e-08
7.90485e-08
7.89708e-08
7.88971e-08
7.88245e-08
7.87505e-08
7.86723e-08
7.85878e-08
7.84949e-08
7.83916e-08
7.82761e-08
7.8147e-08
7.80028e-08
7.78425e-08
7.76651e-08
7.74698e-08
7.72562e-08
7.70239e-08
7.67728e-08
7.6503e-08
7.62151e-08
7.59095e-08
7.55871e-08
7.52488e-08
7.48958e-08
7.45294e-08
7.41512e-08
7.37629e-08
7.33665e-08
7.2964e-08
7.25574e-08
7.21492e-08
7.17417e-08
7.13373e-08
7.09388e-08
7.05486e-08
7.01695e-08
6.98042e-08
6.94556e-08
6.91265e-08
6.88195e-08
6.85376e-08
6.82836e-08
6.80601e-08
6.78701e-08
6.77262e-08
6.76236e-08
6.75613e-08
6.75409e-08
6.75646e-08
6.76342e-08
6.77519e-08
6.79194e-08
6.81382e-08
6.84098e-08
6.87359e-08
6.91176e-08
6.95566e-08
7.00525e-08
7.06084e-08
7.12231e-08
7.18977e-08
7.26312e-08
7.34227e-08
7.42709e-08
7.51746e-08
7.61298e-08
7.71342e-08
7.8183e-08
7.92735e-08
8.03936e-08
8.15228e-08
8.26426e-08
8.37071e-08
8.46871e-08
8.54975e-08
8.60519e-08
7.75686e-08
7.78261e-08
7.77219e-08
7.7397e-08
7.69345e-08
7.63895e-08
7.58218e-08
7.52493e-08
7.47007e-08
7.41871e-08
7.37104e-08
7.32717e-08
7.28711e-08
7.25075e-08
7.21782e-08
7.18824e-08
7.16151e-08
7.13765e-08
7.1161e-08
7.09663e-08
7.07882e-08
7.06239e-08
7.04711e-08
7.03275e-08
7.01904e-08
7.00576e-08
6.99268e-08
6.97962e-08
6.96633e-08
6.95266e-08
6.93844e-08
6.92353e-08
6.90778e-08
6.89108e-08
6.87333e-08
6.85445e-08
6.83438e-08
6.81305e-08
6.79043e-08
6.76651e-08
6.74129e-08
6.71478e-08
6.68703e-08
6.6581e-08
6.62805e-08
6.59697e-08
6.56495e-08
6.5321e-08
6.49856e-08
6.46447e-08
6.42999e-08
6.39527e-08
6.3605e-08
6.32586e-08
6.29154e-08
6.25773e-08
6.22466e-08
6.19252e-08
6.16154e-08
6.13195e-08
6.10396e-08
6.07781e-08
6.05374e-08
6.03196e-08
6.01273e-08
5.99629e-08
5.98304e-08
5.97375e-08
5.96794e-08
5.96565e-08
5.96704e-08
5.97233e-08
5.98168e-08
5.99528e-08
6.0133e-08
6.03586e-08
6.06313e-08
6.09526e-08
6.13237e-08
6.17463e-08
6.22203e-08
6.27485e-08
6.33304e-08
6.39671e-08
6.4658e-08
6.54025e-08
6.61999e-08
6.70489e-08
6.79464e-08
6.88903e-08
6.98767e-08
7.09031e-08
7.19588e-08
7.30257e-08
7.4086e-08
7.50994e-08
7.60368e-08
7.68222e-08
7.73748e-08
7.00991e-08
7.03527e-08
7.02776e-08
6.99932e-08
6.95776e-08
6.90799e-08
6.8553e-08
6.80151e-08
6.74923e-08
6.69954e-08
6.65271e-08
6.60892e-08
6.56823e-08
6.5306e-08
6.49586e-08
6.46396e-08
6.43453e-08
6.40759e-08
6.38271e-08
6.35967e-08
6.33816e-08
6.31794e-08
6.29882e-08
6.28061e-08
6.26309e-08
6.24611e-08
6.22946e-08
6.213e-08
6.19653e-08
6.17993e-08
6.16306e-08
6.14581e-08
6.12806e-08
6.10973e-08
6.09074e-08
6.07101e-08
6.05051e-08
6.02919e-08
6.00701e-08
5.98397e-08
5.96009e-08
5.93535e-08
5.90982e-08
5.88352e-08
5.85652e-08
5.82888e-08
5.80069e-08
5.77203e-08
5.74301e-08
5.71374e-08
5.68435e-08
5.65496e-08
5.62572e-08
5.59678e-08
5.56829e-08
5.54041e-08
5.51331e-08
5.48715e-08
5.46212e-08
5.4384e-08
5.41618e-08
5.39565e-08
5.377e-08
5.36042e-08
5.34611e-08
5.33425e-08
5.32557e-08
5.32005e-08
5.3175e-08
5.31803e-08
5.3218e-08
5.32899e-08
5.33975e-08
5.35426e-08
5.37267e-08
5.39511e-08
5.42172e-08
5.45266e-08
5.48805e-08
5.52804e-08
5.57267e-08
5.62217e-08
5.67655e-08
5.73592e-08
5.80025e-08
5.86951e-08
5.94365e-08
6.02257e-08
6.106e-08
6.19378e-08
6.28556e-08
6.3811e-08
6.47948e-08
6.57907e-08
6.67821e-08
6.7733e-08
6.8615e-08
6.93605e-08
6.98936e-08
6.36205e-08
6.38608e-08
6.38004e-08
6.3543e-08
6.31609e-08
6.2699e-08
6.22039e-08
6.16939e-08
6.11926e-08
6.07106e-08
6.02513e-08
5.98168e-08
5.94082e-08
5.90257e-08
5.86682e-08
5.83357e-08
5.80254e-08
5.77375e-08
5.74685e-08
5.72169e-08
5.69798e-08
5.67554e-08
5.65421e-08
5.63383e-08
5.61423e-08
5.59527e-08
5.57679e-08
5.55866e-08
5.54073e-08
5.52288e-08
5.50502e-08
5.48703e-08
5.46884e-08
5.45036e-08
5.43152e-08
5.41227e-08
5.39257e-08
5.37238e-08
5.35167e-08
5.33043e-08
5.30867e-08
5.28639e-08
5.26363e-08
5.2404e-08
5.21677e-08
5.19277e-08
5.16848e-08
5.14396e-08
5.11929e-08
5.09456e-08
5.06988e-08
5.04534e-08
5.02106e-08
4.99716e-08
4.97376e-08
4.95099e-08
4.92898e-08
4.90788e-08
4.88783e-08
4.86898e-08
4.85149e-08
4.83552e-08
4.82123e-08
4.80879e-08
4.79837e-08
4.79013e-08
4.78477e-08
4.782e-08
4.78178e-08
4.78426e-08
4.78957e-08
4.79787e-08
4.80932e-08
4.82406e-08
4.84223e-08
4.86397e-08
4.88941e-08
4.91869e-08
4.95194e-08
4.98929e-08
5.03081e-08
5.07672e-08
5.12703e-08
5.18186e-08
5.24122e-08
5.3051e-08
5.37345e-08
5.44619e-08
5.5231e-08
5.60404e-08
5.68872e-08
5.77689e-08
5.86776e-08
5.95987e-08
6.05163e-08
6.13987e-08
6.22182e-08
6.29146e-08
6.34172e-08
5.7984e-08
5.82052e-08
5.81503e-08
5.7911e-08
5.7554e-08
5.71204e-08
5.66517e-08
5.61659e-08
5.56844e-08
5.52176e-08
5.47692e-08
5.43417e-08
5.39365e-08
5.35542e-08
5.31942e-08
5.2857e-08
5.25402e-08
5.22443e-08
5.19664e-08
5.17052e-08
5.14584e-08
5.12244e-08
5.10017e-08
5.07893e-08
5.05854e-08
5.0389e-08
5.01986e-08
5.00133e-08
4.98316e-08
4.96526e-08
4.94754e-08
4.92992e-08
4.9123e-08
4.89462e-08
4.87683e-08
4.85887e-08
4.84069e-08
4.82226e-08
4.80357e-08
4.78459e-08
4.76532e-08
4.74576e-08
4.72594e-08
4.70586e-08
4.68558e-08
4.66512e-08
4.64453e-08
4.62386e-08
4.60318e-08
4.58255e-08
4.56206e-08
4.54179e-08
4.52182e-08
4.50226e-08
4.4832e-08
4.46474e-08
4.447e-08
4.4301e-08
4.41414e-08
4.39927e-08
4.38561e-08
4.3733e-08
4.36247e-08
4.35328e-08
4.34587e-08
4.34043e-08
4.33745e-08
4.33663e-08
4.33803e-08
4.34178e-08
4.34799e-08
4.35683e-08
4.36842e-08
4.38291e-08
4.40042e-08
4.42108e-08
4.44501e-08
4.47236e-08
4.50322e-08
4.53775e-08
4.57602e-08
4.61821e-08
4.66438e-08
4.71464e-08
4.76901e-08
4.82751e-08
4.89009e-08
4.95669e-08
5.02712e-08
5.10125e-08
5.17884e-08
5.25966e-08
5.34299e-08
5.42753e-08
5.51179e-08
5.59294e-08
5.66834e-08
5.7326e-08
5.77916e-08
5.30679e-08
5.32667e-08
5.32117e-08
5.29851e-08
5.26479e-08
5.22383e-08
5.17929e-08
5.13296e-08
5.08678e-08
5.04173e-08
4.99823e-08
4.95655e-08
4.91685e-08
4.87921e-08
4.84363e-08
4.81016e-08
4.77863e-08
4.74909e-08
4.72129e-08
4.69513e-08
4.67042e-08
4.64701e-08
4.62477e-08
4.60361e-08
4.58338e-08
4.56398e-08
4.5453e-08
4.52724e-08
4.50967e-08
4.49251e-08
4.47569e-08
4.45911e-08
4.4427e-08
4.42641e-08
4.41017e-08
4.39393e-08
4.37765e-08
4.3613e-08
4.34485e-08
4.32829e-08
4.31159e-08
4.29477e-08
4.27783e-08
4.26078e-08
4.24365e-08
4.22645e-08
4.20924e-08
4.19203e-08
4.1749e-08
4.15788e-08
4.14103e-08
4.12444e-08
4.10815e-08
4.09226e-08
4.07685e-08
4.06199e-08
4.04779e-08
4.03433e-08
4.02172e-08
4.01006e-08
3.99947e-08
3.99006e-08
3.98196e-08
3.97528e-08
3.97017e-08
3.96685e-08
3.96555e-08
3.9661e-08
3.96857e-08
3.97308e-08
3.97974e-08
3.98869e-08
4.00005e-08
4.01395e-08
4.03051e-08
4.04984e-08
4.07207e-08
4.09732e-08
4.1257e-08
4.15734e-08
4.19233e-08
4.23082e-08
4.27291e-08
4.31868e-08
4.36818e-08
4.42143e-08
4.4784e-08
4.53903e-08
4.60316e-08
4.67068e-08
4.74138e-08
4.81502e-08
4.89099e-08
4.96811e-08
5.04498e-08
5.11908e-08
5.18789e-08
5.2466e-08
5.28915e-08
4.87717e-08
4.89468e-08
4.88886e-08
4.86715e-08
4.83511e-08
4.79628e-08
4.75393e-08
4.70979e-08
4.66562e-08
4.62237e-08
4.58047e-08
4.54019e-08
4.50171e-08
4.46515e-08
4.43052e-08
4.39789e-08
4.36713e-08
4.33828e-08
4.31115e-08
4.28564e-08
4.26158e-08
4.23885e-08
4.21733e-08
4.19692e-08
4.1775e-08
4.15898e-08
4.14126e-08
4.12423e-08
4.1078e-08
4.09188e-08
4.0764e-08
4.06127e-08
4.04643e-08
4.03183e-08
4.01739e-08
4.00308e-08
3.98885e-08
3.97466e-08
3.96049e-08
3.94632e-08
3.93213e-08
3.91791e-08
3.90367e-08
3.88941e-08
3.87515e-08
3.86089e-08
3.84668e-08
3.83253e-08
3.81848e-08
3.80457e-08
3.79086e-08
3.77739e-08
3.76422e-08
3.75141e-08
3.73904e-08
3.72716e-08
3.71586e-08
3.70522e-08
3.69532e-08
3.68625e-08
3.67812e-08
3.67101e-08
3.66503e-08
3.66029e-08
3.65688e-08
3.65515e-08
3.65504e-08
3.65651e-08
3.65963e-08
3.66452e-08
3.67128e-08