/*--------------------------------*- C++ -*----------------------------------*\
| =========                 |                                                 |
| \\      /  F ield         | OpenFOAM: The Open Source CFD Toolbox           |
|  \\    /   O peration     | Version:  2006                                  |
|   \\  /    A nd           | Website:  www.openfoam.com                      |
|    \\/     M anipulation  |                                                 |
\*---------------------------------------------------------------------------*/
FoamFile
{
    version     2.0;
    format      ascii;
    class       surfaceScalarField;
    location    "20000";
    object      phi;
}
// * * * * * * * * * * * * * * * * * * * * * * * * * * * * * * * * * * * * * //

dimensions      [0 3 -1 0 0 0 0];
oriented        oriented;


internalField   nonuniform List<scalar> 
29254
(
-7.13558e-07
-3.00363e-10
-7.16668e-07
3.11001e-09
-7.16482e-07
-1.85952e-10
-7.15928e-07
-5.53721e-10
-7.13778e-07
-2.15031e-09
-7.09965e-07
-3.81283e-09
-7.05096e-07
-4.86921e-09
-6.98861e-07
-6.23509e-09
-6.9151e-07
-7.35035e-09
-6.83179e-07
-8.3312e-09
-6.74051e-07
-9.12827e-09
-6.64153e-07
-9.89804e-09
-6.53749e-07
-1.04039e-08
-6.42997e-07
-1.0752e-08
-6.31907e-07
-1.10894e-08
-6.20708e-07
-1.11994e-08
-6.09381e-07
-1.1327e-08
-5.98105e-07
-1.1276e-08
-5.86905e-07
-1.12002e-08
-5.75951e-07
-1.09535e-08
-5.65238e-07
-1.07134e-08
-5.54818e-07
-1.04195e-08
-5.44726e-07
-1.00923e-08
-5.35063e-07
-9.66286e-09
-5.258e-07
-9.26304e-09
-5.16916e-07
-8.88468e-09
-5.08444e-07
-8.47122e-09
-5.00357e-07
-8.08747e-09
-4.92697e-07
-7.66005e-09
-4.8547e-07
-7.22642e-09
-4.78672e-07
-6.79863e-09
-4.72298e-07
-6.37422e-09
-4.66338e-07
-5.95971e-09
-4.60788e-07
-5.55007e-09
-4.55639e-07
-5.14849e-09
-4.50842e-07
-4.79688e-09
-4.46426e-07
-4.41679e-09
-4.42382e-07
-4.04361e-09
-4.38707e-07
-3.67551e-09
-4.35337e-07
-3.3693e-09
-4.32309e-07
-3.02835e-09
-4.29654e-07
-2.65536e-09
-4.27344e-07
-2.30988e-09
-4.25421e-07
-1.92266e-09
-4.23837e-07
-1.58433e-09
-4.22583e-07
-1.25413e-09
-4.21661e-07
-9.2135e-10
-4.21067e-07
-5.93878e-10
-4.20805e-07
-2.62445e-10
-4.2087e-07
6.47914e-11
-4.21261e-07
3.91523e-10
-4.22001e-07
7.3998e-10
-4.23069e-07
1.06814e-09
-4.24466e-07
1.39641e-09
-4.26192e-07
1.72584e-09
-4.28243e-07
2.05151e-09
-4.30624e-07
2.38091e-09
-4.33326e-07
2.70228e-09
-4.36347e-07
3.02081e-09
-4.39736e-07
3.38881e-09
-4.43441e-07
3.70504e-09
-4.4748e-07
4.03861e-09
-4.51812e-07
4.3329e-09
-4.56379e-07
4.56673e-09
-4.61222e-07
4.84333e-09
-4.66336e-07
5.11358e-09
-4.71713e-07
5.37693e-09
-4.77306e-07
5.59266e-09
-4.83134e-07
5.82828e-09
-4.89191e-07
6.05708e-09
-4.95462e-07
6.27057e-09
-5.01943e-07
6.48161e-09
-5.08621e-07
6.67826e-09
-5.15493e-07
6.87189e-09
-5.22561e-07
7.06741e-09
-5.29827e-07
7.26606e-09
-5.37292e-07
7.46567e-09
-5.44985e-07
7.69299e-09
-5.52876e-07
7.89081e-09
-5.61014e-07
8.13749e-09
-5.69278e-07
8.26399e-09
-5.77738e-07
8.46032e-09
-5.86335e-07
8.59733e-09
-5.95069e-07
8.73399e-09
-6.03936e-07
8.86688e-09
-6.12924e-07
8.98789e-09
-6.2198e-07
9.05559e-09
-6.3107e-07
9.08993e-09
-6.40141e-07
9.0715e-09
-6.4917e-07
9.02864e-09
-6.57998e-07
8.82831e-09
-6.667e-07
8.70152e-09
-6.75143e-07
8.44303e-09
-6.8296e-07
7.81735e-09
-6.90512e-07
7.55174e-09
-6.9708e-07
6.56801e-09
-7.02578e-07
5.49867e-09
-7.0707e-07
4.49198e-09
6.78759e-09
-2.19735e-06
-1.33732e-09
-2.20531e-06
1.1062e-08
-2.21003e-06
4.53689e-09
-2.21581e-06
5.22632e-09
-2.21949e-06
1.52849e-09
-2.2192e-06
-4.10557e-09
-2.21643e-06
-7.63625e-09
-2.21012e-06
-1.2544e-08
-2.20061e-06
-1.68554e-08
-2.1882e-06
-2.07463e-08
-2.17326e-06
-2.40675e-08
-2.1559e-06
-2.72541e-08
-2.1367e-06
-2.96059e-08
-2.116e-06
-3.1457e-08
-2.09382e-06
-3.32638e-08
-2.0707e-06
-3.43233e-08
-2.04661e-06
-3.54146e-08
-2.02204e-06
-3.58457e-08
-1.99711e-06
-3.61304e-08
-1.97225e-06
-3.58175e-08
-1.94752e-06
-3.54414e-08
-1.92308e-06
-3.48538e-08
-1.89908e-06
-3.41021e-08
-1.87574e-06
-3.29986e-08
-1.85308e-06
-3.19198e-08
-1.83115e-06
-3.08168e-08
-1.81003e-06
-2.95948e-08
-1.78971e-06
-2.84081e-08
-1.7703e-06
-2.70662e-08
-1.75186e-06
-2.56656e-08
-1.7344e-06
-2.42557e-08
-1.71795e-06
-2.28289e-08
-1.7025e-06
-2.14084e-08
-1.68807e-06
-1.99835e-08
-1.67464e-06
-1.8571e-08
-1.66215e-06
-1.72941e-08
-1.65065e-06
-1.59176e-08
-1.64015e-06
-1.45424e-08
-1.63065e-06
-1.31776e-08
-1.62204e-06
-1.19789e-08
-1.6144e-06
-1.06651e-08
-1.60778e-06
-9.27932e-09
-1.60214e-06
-7.94496e-09
-1.59758e-06
-6.48021e-09
-1.59401e-06
-5.15256e-09
-1.59142e-06
-3.85295e-09
-1.5898e-06
-2.53645e-09
-1.58916e-06
-1.23902e-09
-1.58949e-06
7.60432e-11
-1.59081e-06
1.37656e-09
-1.59309e-06
2.67465e-09
-1.59639e-06
4.04141e-09
-1.60066e-06
5.33698e-09
-1.60589e-06
6.62335e-09
-1.61207e-06
7.90759e-09
-1.61918e-06
9.16388e-09
-1.62722e-06
1.04208e-08
-1.63615e-06
1.16322e-08
-1.64595e-06
1.28201e-08
-1.65669e-06
1.41317e-08
-1.66825e-06
1.52633e-08
-1.6806e-06
1.63881e-08
-1.69366e-06
1.73973e-08
-1.70728e-06
1.81812e-08
-1.72148e-06
1.90451e-08
-1.73622e-06
1.98557e-08
-1.75144e-06
2.05974e-08
-1.767e-06
2.11504e-08
-1.78289e-06
2.17157e-08
-1.79906e-06
2.22239e-08
-1.81542e-06
2.26375e-08
-1.83195e-06
2.30063e-08
-1.84856e-06
2.32864e-08
-1.86521e-06
2.35263e-08
-1.88189e-06
2.37495e-08
-1.89858e-06
2.39578e-08
-1.91526e-06
2.41409e-08
-1.93197e-06
2.44071e-08
-1.94864e-06
2.4554e-08
-1.96536e-06
2.48597e-08
-1.9818e-06
2.47059e-08
-1.9981e-06
2.47607e-08
-2.01411e-06
2.46033e-08
-2.02982e-06
2.4452e-08
-2.04524e-06
2.42867e-08
-2.06033e-06
2.40701e-08
-2.07494e-06
2.36668e-08
-2.08905e-06
2.32047e-08
-2.10255e-06
2.25648e-08
-2.1154e-06
2.18812e-08
-2.12722e-06
2.0654e-08
-2.13823e-06
1.97109e-08
-2.14838e-06
1.85881e-08
-2.15708e-06
1.6514e-08
-2.16543e-06
1.59042e-08
-2.17207e-06
1.32064e-08
-2.17819e-06
1.16195e-08
-2.18518e-06
1.14878e-08
1.99965e-08
-3.77105e-06
-5.72725e-09
-3.78406e-06
2.4073e-08
-3.79849e-06
1.8965e-08
-3.81865e-06
2.53845e-08
-3.83862e-06
2.14981e-08
-3.85362e-06
1.08928e-08
-3.86571e-06
4.4545e-09
-3.87284e-06
-5.41098e-09
-3.87512e-06
-1.45732e-08
-3.87282e-06
-2.30465e-08
-3.8664e-06
-3.04929e-08
-3.85592e-06
-3.77319e-08
-3.84215e-06
-4.33695e-08
-3.82557e-06
-4.80363e-08
-3.80614e-06
-5.26986e-08
-3.78454e-06
-5.59253e-08
-3.76068e-06
-5.92678e-08
-3.73533e-06
-6.11999e-08
-3.70867e-06
-6.27903e-08
-3.68133e-06
-6.31551e-08
-3.65347e-06
-6.3302e-08
-3.62534e-06
-6.29898e-08
-3.59715e-06
-6.22934e-08
-3.56927e-06
-6.08713e-08
-3.54179e-06
-5.94051e-08
-3.51485e-06
-5.77555e-08
-3.4886e-06
-5.5844e-08
-3.4631e-06
-5.39096e-08
-3.43853e-06
-5.16331e-08
-3.41502e-06
-4.91772e-08
-3.39263e-06
-4.66457e-08
-3.37144e-06
-4.40218e-08
-3.35148e-06
-4.136e-08
-3.33283e-06
-3.86415e-08
-3.31549e-06
-3.59103e-08
-3.29939e-06
-3.33932e-08
-3.28466e-06
-3.06488e-08
-3.27133e-06
-2.78691e-08
-3.25943e-06
-2.50791e-08
-3.24885e-06
-2.25599e-08
-3.23972e-06
-1.97931e-08
-3.23208e-06
-1.69215e-08
-3.22593e-06
-1.40961e-08
-3.22139e-06
-1.10129e-08
-3.21839e-06
-8.16067e-09
-3.21688e-06
-5.35822e-09
-3.21691e-06
-2.50894e-09
-3.21845e-06
3.02388e-10
-3.22153e-06
3.15395e-09
-3.22613e-06
5.97596e-09
-3.23224e-06
8.79178e-09
-3.23993e-06
1.17266e-08
-3.2491e-06
1.45102e-08
-3.25973e-06
1.72527e-08
-3.27179e-06
1.99701e-08
-3.28523e-06
2.25974e-08
-3.3e-06
2.5193e-08
-3.31602e-06
2.76544e-08
-3.33323e-06
3.00273e-08
-3.35167e-06
3.25695e-08
-3.37112e-06
3.47149e-08
-3.39147e-06
3.67355e-08
-3.41259e-06
3.85205e-08
-3.4342e-06
3.97958e-08
-3.45628e-06
4.11219e-08
-3.47868e-06
4.22595e-08
-3.50126e-06
4.31721e-08
-3.52375e-06
4.36361e-08
-3.54605e-06
4.40254e-08
-3.56805e-06
4.42225e-08
-3.58956e-06
4.41489e-08
-3.61047e-06
4.39137e-08
-3.63062e-06
4.34304e-08
-3.6499e-06
4.28108e-08
-3.66827e-06
4.21177e-08
-3.68567e-06
4.13545e-08
-3.70201e-06
4.04877e-08
-3.71739e-06
3.97863e-08
-3.73165e-06
3.88129e-08
-3.745e-06
3.82133e-08
-3.7569e-06
3.65988e-08
-3.76754e-06
3.53997e-08
-3.7767e-06
3.37678e-08
-3.78445e-06
3.22027e-08
-3.79081e-06
3.06474e-08
-3.79577e-06
2.90247e-08
-3.79915e-06
2.70544e-08
-3.80105e-06
2.51051e-08
-3.80135e-06
2.28614e-08
-3.80013e-06
2.06617e-08
-3.79689e-06
1.7415e-08
-3.79214e-06
1.49584e-08
-3.78626e-06
1.27103e-08
-3.77879e-06
9.04528e-09
-3.77197e-06
9.08563e-09
-3.76443e-06
5.66579e-09
-3.7599e-06
7.08545e-09
-3.76131e-06
1.28963e-08
3.41276e-08
-5.38447e-06
-1.64541e-08
-5.40143e-06
4.10337e-08
-5.42642e-06
4.39517e-08
-5.46386e-06
6.28252e-08
-5.50441e-06
6.20551e-08
-5.54016e-06
4.66382e-08
-5.57348e-06
3.77709e-08
-5.60121e-06
2.23196e-08
-5.62309e-06
7.30594e-09
-5.63925e-06
-6.88369e-09
-5.65015e-06
-1.95925e-08
-5.65583e-06
-3.20471e-08
-5.65707e-06
-4.21297e-08
-5.65449e-06
-5.06225e-08
-5.64793e-06
-5.92553e-08
-5.63809e-06
-6.57674e-08
-5.62476e-06
-7.25963e-08
-5.60892e-06
-7.70382e-08
-5.59077e-06
-8.09407e-08
-5.57103e-06
-8.28914e-08
-5.54996e-06
-8.43785e-08
-5.52785e-06
-8.5101e-08
-5.50496e-06
-8.51798e-08
-5.48168e-06
-8.41487e-08
-5.45823e-06
-8.28576e-08
-5.43488e-06
-8.11081e-08
-5.41178e-06
-7.89388e-08
-5.38914e-06
-7.65559e-08
-5.36713e-06
-7.3638e-08
-5.34595e-06
-7.036e-08
-5.32571e-06
-6.68827e-08
-5.30656e-06
-6.3174e-08
-5.28859e-06
-5.9334e-08
-5.27189e-06
-5.53358e-08
-5.25655e-06
-5.12563e-08
-5.24254e-06
-4.73946e-08
-5.23003e-06
-4.31629e-08
-5.21908e-06
-3.88178e-08
-5.20976e-06
-3.44024e-08
-5.20206e-06
-3.02595e-08
-5.19606e-06
-2.57868e-08
-5.1918e-06
-2.11873e-08
-5.18932e-06
-1.65705e-08
-5.18874e-06
-1.16014e-08
-5.19001e-06
-6.88987e-09
-5.19312e-06
-2.24387e-09
-5.19813e-06
2.49966e-09
-5.205e-06
7.178e-09
-5.21378e-06
1.1932e-08
-5.22444e-06
1.6629e-08
-5.23694e-06
2.12972e-08
-5.25133e-06
2.61139e-08
-5.26749e-06
3.06716e-08
-5.28536e-06
3.51257e-08
-5.30489e-06
3.94951e-08
-5.32594e-06
4.36524e-08
-5.34845e-06
4.76993e-08
-5.37225e-06
5.14538e-08
-5.3972e-06
5.49834e-08
-5.42323e-06
5.8595e-08
-5.45007e-06
6.15555e-08
-5.47747e-06
6.41331e-08
-5.50524e-06
6.62948e-08
-5.53309e-06
6.76382e-08
-5.56078e-06
6.88198e-08
-5.58808e-06
6.95565e-08
-5.6147e-06
6.97946e-08
-5.6403e-06
6.92338e-08
-5.66464e-06
6.83638e-08
-5.68748e-06
6.7067e-08
-5.70854e-06
6.52087e-08
-5.72762e-06
6.2991e-08
-5.74446e-06
6.02704e-08
-5.75891e-06
5.72556e-08
-5.77086e-06
5.40715e-08
-5.78022e-06
5.07194e-08
-5.78686e-06
4.71233e-08
-5.79089e-06
4.38136e-08
-5.79211e-06
4.0036e-08
-5.79095e-06
3.70493e-08
-5.78667e-06
3.23187e-08
-5.77957e-06
2.83029e-08
-5.76938e-06
2.35807e-08
-5.7563e-06
1.91225e-08
-5.74042e-06
1.47643e-08
-5.72179e-06
1.03987e-08
-5.7003e-06
5.55858e-09
-5.67624e-06
1.04766e-09
-5.64954e-06
-3.84148e-09
-5.62051e-06
-8.36376e-09
-5.58863e-06
-1.44622e-08
-5.55472e-06
-1.89561e-08
-5.51991e-06
-2.20993e-08
-5.48401e-06
-2.68521e-08
-5.45074e-06
-2.41879e-08
-5.41905e-06
-2.60219e-08
-5.39561e-06
-1.63513e-08
-5.38464e-06
1.92375e-09
4.46809e-08
-6.98431e-06
-3.64165e-08
-7.00326e-06
5.99819e-08
-7.03756e-06
7.82519e-08
-7.09124e-06
1.16506e-07
-7.15195e-06
1.22761e-07
-7.20888e-06
1.03573e-07
-7.26453e-06
9.34195e-08
-7.31473e-06
7.25168e-08
-7.35875e-06
5.13272e-08
-7.39655e-06
3.09207e-08
-7.4285e-06
1.23507e-08
-7.45439e-06
-6.15095e-09
-7.47504e-06
-2.14869e-08
-7.49137e-06
-3.42893e-08
-7.50316e-06
-4.74607e-08
-7.51099e-06
-5.79412e-08
-7.51443e-06
-6.91601e-08
-7.51462e-06
-7.68433e-08
-7.51173e-06
-8.38298e-08
-7.50657e-06
-8.80562e-08
-7.49938e-06
-9.15671e-08
-7.49048e-06
-9.39972e-08
-7.48014e-06
-9.55236e-08
-7.46877e-06
-9.5516e-08
-7.45664e-06
-9.4993e-08
-7.44406e-06
-9.36832e-08
-7.43123e-06
-9.17658e-08
-7.4184e-06
-8.93922e-08
-7.40579e-06
-8.62433e-08
-7.39364e-06
-8.25112e-08
-7.38211e-06
-7.84107e-08
-7.3714e-06
-7.38886e-08
-7.36164e-06
-6.90959e-08
-7.35298e-06
-6.39965e-08
-7.34553e-06
-5.87058e-08
-7.33932e-06
-5.35998e-08
-7.33455e-06
-4.79321e-08
-7.33134e-06
-4.20358e-08
-7.32977e-06
-3.59672e-08
-7.32989e-06
-3.0142e-08
-7.3318e-06
-2.38758e-08
-7.33553e-06
-1.74591e-08
-7.34117e-06
-1.09311e-08
-7.34882e-06
-3.94787e-09
-7.35847e-06
2.76132e-09
-7.37012e-06
9.40477e-09
-7.38383e-06
1.62108e-08
-7.39957e-06
2.2915e-08
-7.41736e-06
2.97241e-08
-7.43715e-06
3.64205e-08
-7.45889e-06
4.30368e-08
-7.48258e-06
4.98004e-08
-7.50806e-06
5.61576e-08
-7.53523e-06
6.22924e-08
-7.56397e-06
6.82363e-08
-7.59409e-06
7.37739e-08
-7.62545e-06
7.90558e-08
-7.6578e-06
8.38029e-08
-7.69091e-06
8.80974e-08
-7.72461e-06
9.22958e-08
-7.75854e-06
9.54775e-08
-7.7923e-06
9.79016e-08
-7.82564e-06
9.96301e-08
-7.85812e-06
1.00122e-07
-7.88942e-06
1.00115e-07
-7.91914e-06
9.92793e-08
-7.9469e-06
9.75525e-08
-7.97221e-06
9.45474e-08
-7.99473e-06
9.08849e-08
-8.01412e-06
8.64543e-08
-8.02998e-06
8.10663e-08
-8.04203e-06
7.50415e-08
-8.04993e-06
6.8168e-08
-8.05346e-06
6.07904e-08
-8.0525e-06
5.31117e-08
-8.04691e-06
4.51272e-08
-8.03648e-06
3.66951e-08
-8.02136e-06
2.86956e-08
-8.00133e-06
2.0002e-08
-7.97711e-06
1.28321e-08
-7.94795e-06
3.15384e-09
-7.91422e-06
-5.42175e-09
-7.87561e-06
-1.50311e-08
-7.83247e-06
-2.40202e-08
-7.78501e-06
-3.26938e-08
-7.73343e-06
-4.11848e-08
-7.67767e-06
-5.01926e-08
-7.61831e-06
-5.83131e-08
-7.55539e-06
-6.67672e-08
-7.48949e-06
-7.42637e-08
-7.42016e-06
-8.37939e-08
-7.34869e-06
-9.04242e-08
-7.27697e-06
-9.3816e-08
-7.20521e-06
-9.86186e-08
-7.13867e-06
-9.07218e-08
-7.07684e-06
-8.78575e-08
-7.02908e-06
-6.4104e-08
-7.00096e-06
-2.61972e-08
4.7995e-08
-8.53689e-06
-6.79699e-08
-8.55593e-06
7.90289e-08
-8.59766e-06
1.19981e-07
-8.66462e-06
1.83465e-07
-8.74261e-06
2.00752e-07
-8.81857e-06
1.79533e-07
-8.89481e-06
1.69653e-07
-8.96628e-06
1.43993e-07
-9.03184e-06
1.16884e-07
-9.0913e-06
9.03819e-08
-9.14486e-06
6.59107e-08
-9.19214e-06
4.11263e-08
-9.23356e-06
1.99348e-08
-9.26956e-06
1.70468e-09
-9.30005e-06
-1.69609e-08
-9.32626e-06
-3.17318e-08
-9.34762e-06
-4.78091e-08
-9.36537e-06
-5.90881e-08
-9.37963e-06
-6.95683e-08
-9.39119e-06
-7.64963e-08
-9.40034e-06
-8.2416e-08
-9.40738e-06
-8.69577e-08
-9.41255e-06
-9.03587e-08
-9.41625e-06
-9.18167e-08
-9.41877e-06
-9.24731e-08
-9.42047e-06
-9.19843e-08
-9.42155e-06
-9.06851e-08
-9.42234e-06
-8.85954e-08
-9.42306e-06
-8.5526e-08
-9.42395e-06
-8.16228e-08
-9.42521e-06
-7.7154e-08
-9.42706e-06
-7.20389e-08
-9.42967e-06
-6.6479e-08
-9.43324e-06
-6.04324e-08
-9.43789e-06
-5.40508e-08
-9.44374e-06
-4.77478e-08
-9.45098e-06
-4.06953e-08
-9.45973e-06
-3.32836e-08
-9.47014e-06
-2.55602e-08
-9.48229e-06
-1.79883e-08
-9.49628e-06
-9.88624e-09
-9.51212e-06
-1.61844e-09
-9.52992e-06
6.86904e-09
-9.54976e-06
1.58842e-08
-9.57166e-06
2.46687e-08
-9.59565e-06
3.33914e-08
-9.62176e-06
4.23259e-08
-9.64994e-06
5.10892e-08
-9.68017e-06
5.99553e-08
-9.71237e-06
6.86166e-08
-9.74643e-06
7.71004e-08
-9.7823e-06
8.56742e-08
-9.81979e-06
9.36441e-08
-9.85871e-06
1.01217e-07
-9.8989e-06
1.08422e-07
-9.94007e-06
1.1494e-07
-9.982e-06
1.20986e-07
-1.00243e-05
1.26152e-07
-1.00668e-05
1.30541e-07
-1.0109e-05
1.34481e-07
-1.01505e-05
1.36995e-07
-1.01909e-05
1.38262e-07
-1.02297e-05
1.3845e-07
-1.02665e-05
1.36913e-07
-1.03007e-05
1.3438e-07
-1.0332e-05
1.30508e-07
-1.03596e-05
1.25241e-07
-1.03832e-05
1.18143e-07
-1.04022e-05
1.0989e-07
-1.04162e-05
1.00437e-07
-1.04247e-05
8.9527e-08
-1.04273e-05
7.76419e-08
-1.04236e-05
6.44799e-08
-1.04134e-05
5.05475e-08
-1.03964e-05
3.6161e-08
-1.03726e-05
2.12923e-08
-1.03416e-05
5.68508e-09
-1.03035e-05
-9.3401e-09
-1.02581e-05
-2.54146e-08
-1.0206e-05
-3.92711e-08
-1.01464e-05
-5.64721e-08
-1.00802e-05
-7.16394e-08
-1.00073e-05
-8.79153e-08
-9.92827e-06
-1.03036e-07
-9.84347e-06
-1.17484e-07
-9.75326e-06
-1.31398e-07
-9.65772e-06
-1.45736e-07
-9.5577e-06
-1.58327e-07
-9.45342e-06
-1.7105e-07
-9.34573e-06
-1.81952e-07
-9.23432e-06
-1.95206e-07
-9.12094e-06
-2.03808e-07
-9.00826e-06
-2.06493e-07
-8.89695e-06
-2.09928e-07
-8.79377e-06
-1.939e-07
-8.69871e-06
-1.82917e-07
-8.62351e-06
-1.39303e-07
-8.57522e-06
-7.4488e-08
4.1213e-08
-1.00087e-05
-1.12921e-07
-1.00252e-05
9.55263e-08
-1.00707e-05
1.65468e-07
-1.01458e-05
2.58559e-07
-1.02353e-05
2.90287e-07
-1.03248e-05
2.69025e-07
-1.04162e-05
2.61061e-07
-1.05038e-05
2.31588e-07
-1.05861e-05
1.99179e-07
-1.06628e-05
1.67097e-07
-1.0734e-05
1.37104e-07
-1.07992e-05
1.06261e-07
-1.08584e-05
7.91792e-08
-1.09119e-05
5.51867e-08
-1.09596e-05
3.07707e-08
-1.10031e-05
1.1769e-08
-1.10417e-05
-9.25506e-09
-1.10766e-05
-2.41625e-08
-1.1108e-05
-3.82119e-08
-1.11365e-05
-4.79362e-08
-1.11626e-05
-5.63787e-08
-1.11863e-05
-6.31636e-08
-1.12081e-05
-6.86176e-08
-1.12282e-05
-7.17421e-08
-1.12469e-05
-7.37778e-08
-1.12645e-05
-7.43022e-08
-1.12814e-05
-7.38208e-08
-1.12978e-05
-7.21797e-08
-1.1314e-05
-6.93665e-08
-1.13301e-05
-6.54648e-08
-1.13465e-05
-6.07805e-08
-1.13633e-05
-5.52051e-08
-1.13808e-05
-4.90009e-08
-1.13991e-05
-4.21071e-08
-1.14185e-05
-3.47111e-08
-1.1439e-05
-2.72465e-08
-1.14608e-05
-1.88447e-08
-1.14842e-05
-9.93981e-09
-1.15092e-05
-5.76688e-10
-1.15359e-05
8.76178e-09
-1.15645e-05
1.87387e-08
-1.1595e-05
2.88853e-08
-1.16275e-05
3.93691e-08
-1.16621e-05
5.04181e-08
-1.16987e-05
6.12944e-08
-1.17374e-05
7.20805e-08
-1.17782e-05
8.31064e-08
-1.18209e-05
9.38407e-08
-1.18656e-05
1.04642e-07
-1.19121e-05
1.151e-07
-1.19602e-05
1.25229e-07
-1.20099e-05
1.35321e-07
-1.20608e-05
1.44555e-07
-1.21127e-05
1.53144e-07
-1.21654e-05
1.61119e-07
-1.22185e-05
1.68034e-07
-1.22717e-05
1.74176e-07
-1.23245e-05
1.78995e-07
-1.23766e-05
1.82616e-07
-1.24274e-05
1.85301e-07
-1.24765e-05
1.86067e-07
-1.25232e-05
1.84993e-07
-1.25671e-05
1.82365e-07
-1.26077e-05
1.77437e-07
-1.26442e-05
1.70898e-07
-1.26761e-05
1.62395e-07
-1.27027e-05
1.51907e-07
-1.27235e-05
1.38953e-07
-1.27379e-05
1.24244e-07
-1.27453e-05
1.07822e-07
-1.27451e-05
8.93748e-08
-1.2737e-05
6.95512e-08
-1.27205e-05
4.79707e-08
-1.26953e-05
2.53119e-08
-1.26611e-05
2.01051e-09
-1.26179e-05
-2.19386e-08
-1.25653e-05
-4.69254e-08
-1.25035e-05
-7.11934e-08
-1.24319e-05
-9.69462e-08
-1.23514e-05
-1.19788e-07
-1.22611e-05
-1.46779e-07
-1.21623e-05
-1.70402e-07
-1.20552e-05
-1.9502e-07
-1.19405e-05
-2.17788e-07
-1.18186e-05
-2.39375e-07
-1.16901e-05
-2.59923e-07
-1.15552e-05
-2.80635e-07
-1.1415e-05
-2.98486e-07
-1.127e-05
-3.16083e-07
-1.11212e-05
-3.30722e-07
-1.09686e-05
-3.47847e-07
-1.08142e-05
-3.58135e-07
-1.06616e-05
-3.59161e-07
-1.05117e-05
-3.59768e-07
-1.03727e-05
-3.32957e-07
-1.02449e-05
-3.10649e-07
-1.01421e-05
-2.42128e-07
-1.00727e-05
-1.43897e-07
2.21719e-08
-1.13706e-05
-1.7125e-07
-1.1384e-05
1.08921e-07
-1.14317e-05
2.1319e-07
-1.15106e-05
3.37504e-07
-1.16069e-05
3.86511e-07
-1.17054e-05
3.67603e-07
-1.18076e-05
3.63214e-07
-1.19072e-05
3.31219e-07
-1.20025e-05
2.94423e-07
-1.2093e-05
2.57634e-07
-1.21787e-05
2.2279e-07
-1.2259e-05
1.86537e-07
-1.23339e-05
1.54105e-07
-1.24038e-05
1.25091e-07
-1.24685e-05
9.54967e-08
-1.25293e-05
7.25483e-08
-1.25853e-05
4.67792e-08
-1.26379e-05
2.84048e-08
-1.2687e-05
1.08751e-08
-1.27333e-05
-1.62639e-09
-1.27771e-05
-1.25666e-08
-1.28187e-05
-2.16102e-08
-1.28581e-05
-2.91649e-08
-1.28958e-05
-3.40477e-08
-1.2932e-05
-3.75742e-08
-1.29671e-05
-3.92644e-08
-1.30011e-05
-3.97412e-08
-1.30347e-05
-3.86497e-08
-1.30678e-05
-3.62346e-08
-1.31008e-05
-3.24796e-08
-1.31338e-05
-2.77271e-08
-1.31672e-05
-2.1825e-08
-1.32011e-05
-1.51077e-08
-1.32357e-05
-7.49186e-09
-1.32712e-05
8.00195e-10
-1.33078e-05
9.35348e-09
-1.33457e-05
1.90224e-08
-1.3385e-05
2.93464e-08
-1.34259e-05
4.02834e-08
-1.34684e-05
5.13432e-08
-1.35128e-05
6.31339e-08
-1.35591e-05
7.5125e-08
-1.36072e-05
8.75253e-08
-1.36573e-05
1.00448e-07
-1.37092e-05
1.13275e-07
-1.37631e-05
1.25961e-07
-1.38189e-05
1.38873e-07
-1.38764e-05
1.51339e-07
-1.39355e-05
1.63793e-07
-1.39961e-05
1.75709e-07
-1.4058e-05
1.87088e-07
-1.41209e-05
1.98236e-07
-1.41846e-05
2.08206e-07
-1.42486e-05
2.17217e-07
-1.43128e-05
2.25294e-07
-1.43766e-05
2.31855e-07
-1.44397e-05
2.37261e-07
-1.45015e-05
2.40815e-07
-1.45616e-05
2.42651e-07
-1.46192e-05
2.42926e-07
-1.46739e-05
2.40747e-07
-1.4725e-05
2.36086e-07
-1.47719e-05
2.29274e-07
-1.4814e-05
2.19516e-07
-1.48505e-05
2.07442e-07
-1.48808e-05
1.927e-07
-1.49042e-05
1.75303e-07
-1.492e-05
1.54778e-07
-1.49276e-05
1.31807e-07
-1.49263e-05
1.0655e-07
-1.49156e-05
7.865e-08
-1.4895e-05
4.89447e-08
-1.4864e-05
1.6962e-08
-1.48223e-05
-1.63891e-08
-1.47697e-05
-5.05268e-08
-1.47062e-05
-8.54548e-08
-1.46314e-05
-1.21715e-07
-1.45455e-05
-1.57094e-07
-1.44481e-05
-1.94335e-07
-1.43402e-05
-2.27765e-07
-1.42209e-05
-2.6606e-07
-1.40916e-05
-2.99648e-07
-1.39526e-05
-3.34091e-07
-1.38045e-05
-3.65846e-07
-1.36481e-05
-3.95766e-07
-1.3484e-05
-4.24001e-07
-1.33127e-05
-4.51976e-07
-1.31355e-05
-4.75732e-07
-1.29529e-05
-4.98683e-07
-1.27663e-05
-5.17327e-07
-1.25757e-05
-5.38359e-07
-1.23839e-05
-5.50005e-07
-1.21945e-05
-5.48495e-07
-1.20094e-05
-5.44892e-07
-1.18373e-05
-5.05055e-07
-1.16794e-05
-4.68568e-07
-1.15506e-05
-3.70964e-07
-1.14608e-05
-2.33704e-07
-9.67517e-09
-1.26336e-05
-2.40742e-07
-1.26436e-05
1.18993e-07
-1.2693e-05
2.62588e-07
-1.27751e-05
4.19607e-07
-1.28771e-05
4.88463e-07
-1.2984e-05
4.74474e-07
-1.30961e-05
4.75361e-07
-1.32071e-05
4.42181e-07
-1.33147e-05
4.02096e-07
-1.34187e-05
3.61628e-07
-1.35187e-05
3.2278e-07
-1.36142e-05
2.81978e-07
-1.3705e-05
2.44929e-07
-1.37915e-05
2.116e-07
-1.38734e-05
1.77368e-07
-1.39517e-05
1.50858e-07
-1.40255e-05
1.20654e-07
-1.40962e-05
9.90342e-08
-1.41635e-05
7.82039e-08
-1.42282e-05
6.30509e-08
-1.42904e-05
4.9694e-08
-1.43505e-05
3.84155e-08
-1.44084e-05
2.87355e-08
-1.44645e-05
2.20331e-08
-1.4519e-05
1.69258e-08
-1.45722e-05
1.39539e-08
-1.46243e-05
1.23813e-08
-1.46757e-05
1.2788e-08
-1.47266e-05
1.46449e-08
-1.47772e-05
1.80873e-08
-1.48276e-05
2.27355e-08
-1.48783e-05
2.8794e-08
-1.49292e-05
3.58521e-08
-1.49807e-05
4.40283e-08
-1.5033e-05
5.30513e-08
-1.50862e-05
6.25367e-08
-1.51405e-05
7.33205e-08
-1.5196e-05
8.49064e-08
-1.5253e-05
9.72712e-08
-1.53116e-05
1.09892e-07
-1.53718e-05
1.23325e-07
-1.54336e-05
1.36958e-07
-1.54971e-05
1.51049e-07
-1.55623e-05
1.65583e-07
-1.56291e-05
1.80079e-07
-1.56974e-05
1.94354e-07
-1.57674e-05
2.08806e-07
-1.58387e-05
2.22609e-07
-1.59111e-05
2.36283e-07
-1.59846e-05
2.49174e-07
-1.60588e-05
2.61259e-07
-1.61334e-05
2.72854e-07
-1.62081e-05
2.82898e-07
-1.62825e-05
2.91603e-07
-1.63562e-05
2.9898e-07
-1.64286e-05
3.04318e-07
-1.64994e-05
3.08045e-07
-1.65679e-05
3.09316e-07
-1.66335e-05
3.08279e-07
-1.66956e-05
3.04966e-07
-1.67534e-05
2.98603e-07
-1.68064e-05
2.89054e-07
-1.68538e-05
2.76688e-07
-1.6895e-05
2.60678e-07
-1.69291e-05
2.41582e-07
-1.69555e-05
2.19059e-07
-1.69733e-05
1.93165e-07
-1.6982e-05
1.63439e-07
-1.69807e-05
1.30534e-07
-1.69689e-05
9.47377e-08
-1.69459e-05
5.56603e-08
-1.69113e-05
1.43414e-08
-1.68646e-05
-2.97509e-08
-1.68056e-05
-7.54425e-08
-1.6734e-05
-1.22039e-07
-1.66499e-05
-1.69564e-07
-1.65529e-05
-2.18716e-07
-1.64433e-05
-2.66766e-07
-1.63206e-05
-3.16968e-07
-1.6186e-05
-3.62383e-07
-1.60387e-05
-4.13314e-07
-1.58802e-05
-4.58199e-07
-1.57106e-05
-5.03704e-07
-1.55309e-05
-5.4557e-07
-1.53418e-05
-5.84809e-07
-1.51442e-05
-6.21573e-07
-1.49387e-05
-6.57476e-07
-1.47269e-05
-6.87619e-07
-1.45093e-05
-7.16209e-07
-1.42877e-05
-7.38963e-07
-1.40623e-05
-7.63764e-07
-1.3836e-05
-7.76336e-07
-1.3613e-05
-7.71421e-07
-1.33957e-05
-7.62196e-07
-1.31934e-05
-7.07354e-07
-1.3008e-05
-6.53957e-07
-1.28554e-05
-5.23647e-07
-1.27468e-05
-3.42292e-07
-5.33965e-08
-1.38273e-05
-3.18587e-07
-1.38358e-05
1.27566e-07
-1.38886e-05
3.15321e-07
-1.39733e-05
5.04378e-07
-1.40804e-05
5.95502e-07
-1.41953e-05
5.89409e-07
-1.43172e-05
5.97224e-07
-1.44395e-05
5.64509e-07
-1.45597e-05
5.22313e-07
-1.46774e-05
4.79307e-07
-1.4792e-05
4.37361e-07
-1.49029e-05
3.92899e-07
-1.50099e-05
3.51978e-07
-1.51133e-05
3.14999e-07
-1.52126e-05
2.76647e-07
-1.53087e-05
2.46961e-07
-1.54007e-05
2.12665e-07
-1.54897e-05
1.8802e-07
-1.55756e-05
1.64091e-07
-1.5659e-05
1.46408e-07
-1.574e-05
1.30713e-07
-1.58188e-05
1.17227e-07
-1.58955e-05
1.05409e-07
-1.59703e-05
9.68544e-08
-1.60434e-05
9.00659e-08
-1.61152e-05
8.56773e-08
-1.61856e-05
8.2863e-08
-1.62552e-05
8.23892e-08
-1.63241e-05
8.34976e-08
-1.63924e-05
8.64287e-08
-1.64605e-05
9.07589e-08
-1.65284e-05
9.67546e-08
-1.65965e-05
1.03929e-07
-1.66649e-05
1.12438e-07
-1.67338e-05
1.21966e-07
-1.68034e-05
1.32155e-07
-1.68739e-05
1.4381e-07
-1.69454e-05
1.56407e-07
-1.70181e-05
1.6993e-07
-1.7092e-05
1.83808e-07
-1.71672e-05
1.98576e-07
-1.72438e-05
2.1354e-07
-1.73218e-05
2.28974e-07
-1.74009e-05
2.44763e-07
-1.74814e-05
2.60521e-07
-1.7563e-05
2.75945e-07
-1.76456e-05
2.91464e-07
-1.77291e-05
3.06097e-07
-1.78133e-05
3.20428e-07
-1.78978e-05
3.33685e-07
-1.79823e-05
3.45824e-07
-1.80666e-05
3.57156e-07
-1.81502e-05
3.66506e-07
-1.82327e-05
3.74086e-07
-1.83136e-05
3.79885e-07
-1.83924e-05
3.83065e-07
-1.84685e-05
3.84121e-07
-1.85412e-05
3.82056e-07
-1.861e-05
3.77038e-07
-1.8674e-05
3.68998e-07
-1.87326e-05
3.57237e-07
-1.87851e-05
3.41542e-07
-1.88307e-05
3.22317e-07
-1.88687e-05
2.98675e-07
-1.88983e-05
2.71171e-07
-1.89187e-05
2.39442e-07
-1.89292e-05
2.03612e-07
-1.89289e-05
1.63217e-07
-1.89173e-05
1.18892e-07
-1.88936e-05
7.10656e-08
-1.88573e-05
1.93066e-08
-1.88078e-05
-3.50895e-08
-1.87449e-05
-9.26845e-08
-1.86682e-05
-1.52119e-07
-1.85777e-05
-2.12581e-07
-1.84732e-05
-2.74096e-07
-1.83544e-05
-3.37487e-07
-1.82216e-05
-3.99516e-07
-1.80747e-05
-4.63895e-07
-1.79146e-05
-5.22509e-07
-1.77407e-05
-5.87195e-07
-1.75544e-05
-6.44517e-07
-1.7356e-05
-7.02099e-07
-1.71465e-05
-7.55006e-07
-1.6927e-05
-8.04361e-07
-1.66982e-05
-8.50323e-07
-1.64611e-05
-8.94635e-07
-1.62172e-05
-9.31528e-07
-1.59675e-05
-9.65907e-07
-1.57137e-05
-9.92771e-07
-1.54564e-05
-1.02109e-06
-1.51986e-05
-1.03407e-06
-1.49451e-05
-1.0249e-06
-1.46987e-05
-1.00866e-06
-1.4469e-05
-9.37046e-07
-1.42588e-05
-8.64097e-07
-1.40846e-05
-6.97863e-07
-1.39592e-05
-4.67734e-07
-1.07486e-07
-1.49765e-05
-4.01971e-07
-1.49837e-05
1.34809e-07
-1.50399e-05
3.71473e-07
-1.51283e-05
5.92853e-07
-1.52413e-05
7.08474e-07
-1.53651e-05
7.1316e-07
-1.54973e-05
7.29492e-07
-1.56315e-05
6.9869e-07
-1.57648e-05
6.55573e-07
-1.58966e-05
6.11119e-07
-1.60262e-05
5.66955e-07
-1.6153e-05
5.19738e-07
-1.62767e-05
4.75645e-07
-1.63973e-05
4.35581e-07
-1.65142e-05
3.936e-07
-1.66283e-05
3.61064e-07
-1.67387e-05
3.23011e-07
-1.68462e-05
2.95526e-07
-1.69507e-05
2.68675e-07
-1.70529e-05
2.48551e-07
-1.71527e-05
2.30568e-07
-1.72504e-05
2.1488e-07
-1.73459e-05
2.0089e-07
-1.74394e-05
1.90396e-07
-1.75312e-05
1.81805e-07
-1.76213e-05
1.75844e-07
-1.77101e-05
1.71597e-07
-1.77977e-05
1.70041e-07
-1.78844e-05
1.70175e-07
-1.79703e-05
1.72338e-07
-1.80556e-05
1.76085e-07
-1.81406e-05
1.81742e-07
-1.82254e-05
1.88748e-07
-1.83103e-05
1.97288e-07
-1.83953e-05
2.07012e-07
-1.84808e-05
2.17588e-07
-1.85667e-05
2.29781e-07
-1.86534e-05
2.43044e-07
-1.87408e-05
2.57358e-07
-1.88291e-05
2.72108e-07
-1.89183e-05
2.87811e-07
-1.90085e-05
3.03681e-07
-1.90995e-05
3.20005e-07
-1.91913e-05
3.36565e-07
-1.92839e-05
3.53071e-07
-1.9377e-05
3.69115e-07
-1.94707e-05
3.85129e-07
-1.95646e-05
3.99986e-07
-1.96585e-05
4.14327e-07
-1.97521e-05
4.27267e-07
-1.9845e-05
4.38726e-07
-1.99368e-05
4.49023e-07
-2.00272e-05
4.56859e-07
-2.01156e-05
4.62458e-07
-2.02014e-05
4.65768e-07
-2.02842e-05
4.6585e-07
-2.03633e-05
4.63239e-07
-2.04381e-05
4.56811e-07
-2.05078e-05
4.4674e-07
-2.05717e-05
4.32853e-07
-2.0629e-05
4.14547e-07
-2.0679e-05
3.91539e-07
-2.07209e-05
3.64246e-07
-2.0754e-05
3.31759e-07
-2.07774e-05
2.94594e-07
-2.07904e-05
2.52401e-07
-2.07921e-05
2.05351e-07
-2.07819e-05
1.53013e-07
-2.0759e-05
9.59857e-08
-2.07228e-05
3.48355e-08
-2.06726e-05
-3.08517e-08
-2.06082e-05
-9.95206e-08
-2.0529e-05
-1.71832e-07
-2.04349e-05
-2.46219e-07
-2.03257e-05
-3.2176e-07
-2.02014e-05
-3.98447e-07
-2.00617e-05
-4.77204e-07
-1.99069e-05
-5.54318e-07
-1.97369e-05
-6.33902e-07
-1.95526e-05
-7.06773e-07
-1.93536e-05
-7.86147e-07
-1.91413e-05
-8.56873e-07
-1.8916e-05
-9.2738e-07
-1.86789e-05
-9.92116e-07
-1.8431e-05
-1.05225e-06
-1.81734e-05
-1.10796e-06
-1.7907e-05
-1.16104e-06
-1.76336e-05
-1.20492e-06
-1.73543e-05
-1.24515e-06
-1.7071e-05
-1.27607e-06
-1.67846e-05
-1.30757e-06
-1.64982e-05
-1.32046e-06
-1.62168e-05
-1.30624e-06
-1.59439e-05
-1.28159e-06
-1.56893e-05
-1.19163e-06
-1.54569e-05
-1.09654e-06
-1.52632e-05
-8.91478e-07
-1.51228e-05
-6.08181e-07
-1.70438e-07
-1.61008e-05
-4.87588e-07
-1.6108e-05
1.42022e-07
-1.61689e-05
4.32372e-07
-1.62612e-05
6.85201e-07
-1.63803e-05
8.27485e-07
-1.65131e-05
8.46038e-07
-1.6656e-05
8.72404e-07
-1.68025e-05
8.45176e-07
-1.69493e-05
8.02323e-07
-1.70957e-05
7.5751e-07
-1.72407e-05
7.11967e-07
-1.73838e-05
6.62831e-07
-1.75243e-05
6.16196e-07
-1.76623e-05
5.7357e-07
-1.77971e-05
5.28402e-07
-1.79294e-05
4.93308e-07
-1.80582e-05
4.51799e-07
-1.81842e-05
4.21612e-07
-1.83075e-05
3.91973e-07
-1.84284e-05
3.69427e-07
-1.8547e-05
3.4917e-07
-1.86634e-05
3.3124e-07
-1.87775e-05
3.15015e-07
-1.88896e-05
3.02472e-07
-1.89997e-05
2.91915e-07
-1.9108e-05
2.84173e-07
-1.92147e-05
2.78275e-07
-1.932e-05
2.7536e-07
-1.94241e-05
2.74238e-07
-1.95271e-05
2.75326e-07
-1.96291e-05
2.78166e-07
-1.97305e-05
2.83141e-07
-1.98314e-05
2.89612e-07
-1.99319e-05
2.97813e-07
-2.00323e-05
3.07351e-07
-2.01326e-05
3.17927e-07
-2.02331e-05
3.30243e-07
-2.03338e-05
3.43738e-07
-2.04348e-05
3.58388e-07
-2.05362e-05
3.73531e-07
-2.06381e-05
3.89674e-07
-2.07403e-05
4.05941e-07
-2.0843e-05
4.22624e-07
-2.09458e-05
4.39409e-07
-2.10488e-05
4.56086e-07
-2.11519e-05
4.72147e-07
-2.12547e-05
4.88011e-07
-2.13572e-05
5.02437e-07
-2.14589e-05
5.1609e-07
-2.15597e-05
5.27985e-07
-2.1659e-05
5.38013e-07
-2.17564e-05
5.46464e-07
-2.18515e-05
5.51971e-07
-2.19438e-05
5.5473e-07
-2.20327e-05
5.54663e-07
-2.21176e-05
5.50732e-07
-2.21978e-05
5.43504e-07
-2.22728e-05
5.31747e-07
-2.23416e-05
5.15623e-07
-2.24037e-05
4.94883e-07
-2.24581e-05
4.6899e-07
-2.25042e-05
4.37613e-07
-2.25411e-05
4.01181e-07
-2.25681e-05
3.58738e-07
-2.25843e-05
3.10815e-07
-2.2589e-05
2.57061e-07
-2.25813e-05
1.97686e-07
-2.25606e-05
1.32313e-07
-2.25261e-05
6.14858e-08
-2.24772e-05
-1.40681e-08
-2.24133e-05
-9.47198e-08
-2.23342e-05
-1.78701e-07
-2.22392e-05