/*--------------------------------*- C++ -*----------------------------------*\
| =========                 |                                                 |
| \\      /  F ield         | OpenFOAM: The Open Source CFD Toolbox           |
|  \\    /   O peration     | Version:  2.4.0                                 |
|   \\  /    A nd           | Web:      www.OpenFOAM.org                      |
|    \\/     M anipulation  |                                                 |
\*---------------------------------------------------------------------------*/
FoamFile
{
    version     2.0;
    format      ascii;
    class       volScalarField;
    location    "350";
    object      nut;
}
// * * * * * * * * * * * * * * * * * * * * * * * * * * * * * * * * * * * * * //

dimensions      [0 2 -1 0 0 0 0];

internalField   nonuniform List<scalar> 
78300
(
2.9003472e-12
1.5744413e-12
4.5245298e-12
2.7842605e-12
3.4736733e-12
1.1258102e-12
4.7323001e-13
4.6406664e-14
2.5726979e-13
5.5908113e-13
3.8458176e-13
3.0478456e-13
1.6953929e-13
1.3403366e-13
9.1333686e-14
8.2421611e-14
6.5010318e-14
6.193281e-14
5.2940331e-14
4.9795316e-14
4.3564073e-14
4.0468153e-14
3.6157794e-14
3.4671844e-14
3.297645e-14
3.2777996e-14
3.2661549e-14
3.3746891e-14
3.5243193e-14
3.7960209e-14
4.1488124e-14
4.6441305e-14
5.2650611e-14
6.060034e-14
7.0102138e-14
8.1204971e-14
9.2819491e-14
1.051257e-13
1.1822481e-13
1.3189395e-13
1.4598856e-13
1.6005458e-13
1.7378071e-13
1.8646203e-13
1.9778425e-13
2.0679379e-13
2.1388025e-13
2.1834685e-13
2.2467871e-13
2.2807161e-13
2.3299408e-13
2.3210112e-13
2.3124497e-13
2.2734365e-13
2.2136181e-13
2.061437e-13
1.9504233e-13
1.7455823e-13
1.6242202e-13
1.407398e-13
1.4012739e-13
1.3072133e-13
1.8814349e-13
3.3636131e-13
4.5898866e-13
5.9757096e-13
7.2728062e-13
8.7253865e-13
1.0003812e-12
1.1323043e-12
1.2530362e-12
1.3746023e-12
1.487083e-12
1.5987317e-12
1.7031895e-12
1.8059333e-12
1.9028222e-12
1.9971591e-12
2.0851998e-12
2.1602413e-12
2.2411275e-12
2.3189045e-12
2.3925338e-12
2.4629158e-12
2.5293188e-12
2.5922904e-12
2.6513314e-12
2.7067927e-12
2.7583288e-12
2.8062113e-12
2.8500168e-12
2.8895273e-12
2.9429416e-12
2.9775318e-12
3.0085568e-12
3.0359956e-12
3.0574311e-12
3.05891e-12
3.0745422e-12
3.0870269e-12
3.097032e-12
3.1049734e-12
3.1119534e-12
3.1187104e-12
3.1268822e-12
3.1347052e-12
3.1396885e-12
3.1270537e-12
3.1105203e-12
3.0888993e-12
3.064138e-12
3.0363307e-12
3.0059234e-12
2.9729613e-12
2.9377032e-12
2.9002162e-12
2.8606988e-12
2.8192399e-12
2.776011e-12
2.7311153e-12
2.6847103e-12
2.6369047e-12
2.5878426e-12
2.537637e-12
2.4864289e-12
2.4343317e-12
2.3814753e-12
2.3279664e-12
2.2739245e-12
2.2194545e-12
2.1646676e-12
2.109662e-12
2.0545405e-12
1.9993975e-12
1.944328e-12
1.8894146e-12
1.834736e-12
1.7803667e-12
1.7263797e-12
1.6728453e-12
1.6198244e-12
1.5673813e-12
1.5155716e-12
1.4644535e-12
1.4140741e-12
1.3644838e-12
1.3157225e-12
1.2678323e-12
1.2208446e-12
1.1747919e-12
1.1296964e-12
1.0855863e-12
1.0424755e-12
1.0003882e-12
9.5933009e-13
9.1932104e-13
8.8035891e-13
8.4246222e-13
8.0562034e-13
7.6984986e-13
7.3513206e-13
7.014807e-13
6.6887579e-13
6.3733007e-13
6.0681402e-13
5.7735457e-13
5.489092e-13
5.2150125e-13
4.9506894e-13
4.6964771e-13
4.4516578e-13
4.2167697e-13
3.990879e-13
3.7747175e-13
3.5670416e-13
3.3688416e-13
3.1785301e-13
2.9974724e-13
2.8237078e-13
2.6590294e-13
2.5009722e-13
2.3518865e-13
2.2086748e-13
2.0744107e-13
1.9452073e-13
1.8250541e-13
1.7090801e-13
1.6023605e-13
1.498853e-13
1.4049735e-13
1.3132509e-13
1.2317143e-13
1.1511039e-13
1.0814451e-13
1.0113401e-13
9.5328928e-14
8.9325217e-14
8.4679754e-14
7.9666214e-14
7.6218086e-14
7.221471e-14
7.0056024e-14
6.714973e-14
6.6460357e-14
6.4848903e-14
6.5913703e-14
6.5529508e-14
6.7710836e-14
7.0019302e-14
7.1120818e-14
7.2997886e-14
7.157738e-14
7.0617005e-14
6.6731438e-14
6.3058268e-14
5.7247555e-14
5.1567011e-14
4.462765e-14
3.7953125e-14
3.0873029e-14
2.4374931e-14
1.8244915e-14
1.3098012e-14
8.8968264e-15
1.345521e-14
2.117017e-14
3.2814724e-14
4.9870413e-14
7.3137422e-14
1.0411411e-13
1.4326319e-13
1.9191232e-13
2.4982923e-13
3.1758664e-13
3.9235101e-13
4.6971974e-13
5.5015906e-13
6.3393717e-13
7.1901885e-13
8.0685847e-13
9.0659925e-13
9.8046358e-13
1.0704368e-12
1.1780535e-12
1.3070464e-12
1.4573964e-12
1.6446746e-12
1.8828727e-12
2.2318992e-12
2.6520487e-12
3.2128938e-12
3.8779639e-12
4.7976905e-12
5.8907769e-12
7.4689997e-12
9.405234e-12
1.2301509e-11
1.5923998e-11
2.1297605e-11
2.6838307e-11
3.3255393e-11
3.3697741e-11
3.0230614e-11
2.2114617e-11
1.611951e-11
8.70671e-12
6.100244e-12
2.3385831e-12
2.6045852e-12
6.1727405e-13
2.2028068e-12
4.233978e-12
3.3465058e-12
4.95392e-12
1.5992913e-11
2.6828378e-12
1.539771e-12
6.9198504e-13
1.4641285e-12
6.353375e-13
4.1958862e-13
3.1788232e-13
1.7700257e-13
1.3734531e-13
9.4995214e-14
8.5391754e-14
6.85375e-14
6.5315813e-14
5.6818012e-14
5.38199e-14
4.8037773e-14
4.5218643e-14
4.1368123e-14
4.0280839e-14
3.9167472e-14
3.9577969e-14
4.0215384e-14
4.2131999e-14
4.4627696e-14
4.8484934e-14
5.3370937e-14
5.9901791e-14
6.7979739e-14
7.8113163e-14
9.0184663e-14
1.0427031e-13
1.1935318e-13
1.3565433e-13
1.5339002e-13
1.724435e-13
1.9275186e-13
2.1393848e-13
2.3570394e-13
2.5726823e-13
2.779782e-13
2.9583241e-13
3.0365145e-13
1.6309479e-13
6.4761058e-13
1.7791679e-13
7.4587595e-13
1.9108035e-13
1.9556762e-13
9.0577731e-13
9.629649e-13
2.040428e-13
4.7691563e-13
4.7443777e-13
4.7256858e-13
4.558999e-13
4.5341143e-13
4.3967386e-13
4.9038579e-13
1.4098348e-12
1.721786e-12
5.319958e-13
6.4158946e-13
2.7788631e-12
3.1124975e-12
3.4455152e-12
3.7634296e-12
4.0799533e-12
4.3844903e-12
4.6869671e-12
4.981205e-12
5.2748282e-12
5.5656762e-12
5.857026e-12
5.9825373e-12
1.8145757e-12
1.8827992e-12
1.9501101e-12
2.0145013e-12
2.0765611e-12
2.1357843e-12
2.192527e-12
2.2464392e-12
2.297755e-12
2.3462847e-12
2.3924447e-12
2.4372698e-12
2.5059672e-12
9.1956023e-12
9.3998082e-12
9.6007858e-12
9.8035191e-12
9.6840188e-12
2.6699603e-12
2.6907774e-12
2.7121338e-12
2.7324493e-12
2.7525996e-12
2.7745428e-12
2.8014798e-12
2.8421404e-12
2.9386978e-12
5.8795913e-12
5.9265593e-12
5.9506687e-12
5.967857e-12
5.980153e-12
5.9880055e-12
5.9918806e-12
5.9918774e-12
5.988241e-12
5.9810535e-12
5.9705001e-12
5.956675e-12
5.9397434e-12
5.9198113e-12
5.8970355e-12
5.8715288e-12
5.8434392e-12
5.8128858e-12
5.780018e-12
5.7449585e-12
5.7078503e-12
5.6688125e-12
5.6279794e-12
5.5854714e-12
5.5414167e-12
5.4959312e-12
5.4491372e-12
5.4011484e-12
5.352082e-12
5.3020413e-12
5.2511274e-12
5.1994342e-12
5.1470556e-12
5.0940821e-12
5.040595e-12
4.9866777e-12
4.9324072e-12
4.8778608e-12
4.8231091e-12
4.768223e-12
4.7132687e-12
4.6583099e-12
4.6034061e-12
4.5486113e-12
4.4939745e-12
4.4395444e-12
4.385359e-12
4.3314605e-12
4.2778769e-12
4.2246429e-12
4.1717767e-12
4.11931e-12
4.0672515e-12
4.0156298e-12
3.964444e-12
3.9137176e-12
3.8634339e-12
3.8136508e-12
3.764326e-12
3.7155023e-12
3.6671531e-12
3.6193134e-12
3.5719282e-12
3.5250368e-12
3.478571e-12
3.43259e-12
3.3870031e-12
3.3418919e-12
3.2971269e-12
3.2528139e-12
3.2087766e-12
3.1651534e-12
3.1217206e-12
3.0786663e-12
3.0356938e-12
2.9930549e-12
2.9503595e-12
2.9079431e-12
2.8652911e-12
2.8228568e-12
2.7799672e-12
2.7372138e-12
2.6937234e-12
2.6502757e-12
2.6057396e-12
2.5611365e-12
2.5149955e-12
2.4686433e-12
2.4201788e-12
2.3713288e-12
2.319652e-12
2.2673793e-12
2.21143e-12
2.1546492e-12
2.093245e-12
2.0307352e-12
1.962682e-12
1.8932188e-12
1.8180184e-12
1.7410326e-12
1.6519927e-12
1.5670673e-12
1.5433732e-12
1.5509871e-12
1.575178e-12
1.5990834e-12
1.6233357e-12
1.6431101e-12
1.6594975e-12
1.670846e-12
1.6780472e-12
1.6809765e-12
1.6804968e-12
1.6773118e-12
1.6725741e-12
1.6679936e-12
1.6676278e-12
1.672933e-12
1.6890888e-12
1.7106803e-12
1.7378433e-12
1.7716085e-12
1.8123208e-12
1.8609104e-12
1.9172046e-12
1.9816579e-12
2.0531076e-12
2.1301209e-12
2.2051858e-12
2.2725065e-12
2.3352115e-12
2.3950546e-12
2.4516586e-12
2.4155718e-12
8.5910872e-12
7.5017624e-12
7.1073312e-12
7.0538298e-12
7.1636548e-12
7.3820359e-12
7.7232047e-12
8.2364863e-12
8.976023e-12
9.8805758e-12
1.1045936e-11
1.2420368e-11
1.581042e-11
1.8129226e-11
2.1266341e-11
2.5252103e-11
1.415068e-11
1.8329698e-11
2.4946045e-11
3.1838403e-11
3.9175022e-11
4.0116564e-11
3.6698431e-11
2.8395339e-11
4.6271592e-11
3.0274159e-11
2.1299263e-11
1.3744771e-11
1.2626163e-11
2.8599996e-12
6.1715494e-12
6.4427961e-11
8.0378338e-12
5.8088578e-11
2.9245065e-10
3.8552254e-11
2.5306951e-11
1.4480516e-11
2.8678837e-11
2.8467003e-12
1.5836768e-12
9.4262992e-13
5.25598e-13
3.6264748e-13
2.7676405e-13
2.4359082e-13
2.1717546e-13
2.077667e-13
1.9833861e-13
1.9466515e-13
1.9039133e-13
1.8953157e-13
1.8982028e-13
1.9512853e-13
2.037583e-13
2.1629399e-13
2.320527e-13
2.5212824e-13
2.766649e-13
3.0690289e-13
3.4354915e-13
3.8801474e-13
4.4142581e-13
5.0536327e-13
5.8088733e-13
6.6863195e-13
7.6773642e-13
8.795388e-13
1.0066648e-12
1.150861e-12
1.3135376e-12
1.4953462e-12
1.6958825e-12
1.9120857e-12
2.1362487e-12
2.3442424e-12
2.3667861e-12
3.9813679e-13
9.3034112e-12
5.4886907e-13
1.1385738e-11
7.3155959e-13
8.5383784e-13
1.5326643e-11
1.6713452e-11
1.3117044e-12
6.9601779e-12
7.271536e-12
7.4546435e-12
7.4864793e-12
7.4429936e-12
7.312489e-12
7.3733099e-12
2.4120492e-11
2.818024e-11
2.6745516e-12
3.1334469e-12
4.1975312e-11
4.6433431e-11
5.0742124e-11
5.4993433e-11
5.9190054e-11
6.3346523e-11
6.7476756e-11
7.1604458e-11
7.5763177e-11
8.0012005e-11
8.4339408e-11
8.4868731e-11
7.5623808e-12
7.8409695e-12
8.1513586e-12
8.4581999e-12
8.7613654e-12
9.0604168e-12
9.3552514e-12
9.6454694e-12
9.9311238e-12
1.0212955e-11
1.0495622e-11
1.0805464e-11
1.1638776e-11
1.3745846e-10
1.4139092e-10
1.452791e-10
1.4930114e-10
1.457243e-10
1.2655332e-11
1.2847271e-11
1.3101444e-11
1.3367127e-11
1.3655948e-11
1.3991756e-11
1.4427175e-11
1.5111306e-11
1.6899615e-11
7.2064281e-11
7.3355359e-11
7.4193548e-11
7.4972578e-11
7.5701382e-11
7.6388131e-11
7.7034902e-11
7.7643049e-11
7.8213229e-11
7.8746003e-11
7.9241817e-11
7.9701109e-11
8.0124361e-11
8.0512024e-11
8.086465e-11
8.1182733e-11
8.1466887e-11
8.1717654e-11
8.1935743e-11
8.2121774e-11
8.227651e-11
8.2400616e-11
8.249486e-11
8.2559963e-11
8.2596711e-11
8.2605857e-11
8.2588207e-11
8.2544533e-11
8.2475673e-11
8.238239e-11
8.2265465e-11
8.2125599e-11
8.1963521e-11
8.177994e-11
8.1575526e-11
8.1350936e-11
8.1106849e-11
8.0843898e-11
8.0562781e-11
8.0264129e-11
7.9948669e-11
7.9617042e-11
7.9269975e-11
7.8908067e-11
7.8531991e-11
7.8142299e-11
7.7739586e-11
7.7324326e-11
7.6897039e-11
7.645813e-11
7.600803e-11
7.5547113e-11
7.5075751e-11
7.4594282e-11
7.4103029e-11
7.3602253e-11
7.3091964e-11
7.2573192e-11
7.2045561e-11
7.1509511e-11
7.0965242e-11
7.0413101e-11
6.9853003e-11
6.928517e-11
6.8709419e-11
6.8126061e-11
6.7534815e-11
6.6936136e-11
6.6329455e-11
6.5715284e-11
6.5092651e-11
6.4462105e-11
6.3822309e-11
6.3174121e-11
6.2515517e-11
6.1847744e-11
6.1167878e-11
6.0477675e-11
5.9772924e-11
5.9056288e-11
5.8321871e-11
5.7573392e-11
5.680269e-11
5.601517e-11
5.5199598e-11
5.4363759e-11
5.3492198e-11
5.2595768e-11
5.1653448e-11
5.0680374e-11
4.9648449e-11
4.8578299e-11
4.7433637e-11
4.6241717e-11
4.49578e-11
4.3615415e-11
4.2164238e-11
4.0640988e-11
3.9007863e-11
3.7285905e-11
3.5325429e-11
3.3410891e-11
3.2846824e-11
3.2995202e-11
3.3496254e-11
3.4051907e-11
3.4606855e-11
3.5116756e-11
3.5547794e-11
3.5906755e-11
3.617158e-11
3.6365121e-11
3.6478343e-11
3.6539224e-11
3.6555109e-11
3.656786e-11
3.665555e-11
3.6850318e-11
3.7123155e-11
3.7458065e-11
3.7843167e-11
3.8274323e-11
3.8744284e-11
3.9245905e-11
3.9766808e-11
4.029275e-11
4.0802146e-11
4.1252209e-11
4.1530213e-11
4.1589955e-11
4.1491458e-11
4.1268652e-11
4.0947902e-11
3.8344769e-11
1.8428058e-10
1.5620485e-10
1.4411994e-10
1.3989164e-10
1.3906473e-10
1.4029788e-10
1.4349966e-10
1.4948754e-10
1.5785235e-10
1.6821524e-10
1.8092516e-10
1.9574774e-10
2.7213659e-10
3.0158804e-10
3.360405e-10
3.8125157e-10
6.61307e-11
8.5857058e-11
1.2392364e-10
1.6470361e-10
1.9846075e-10
2.102457e-10
2.0375699e-10
1.8172433e-10
6.7252689e-10
4.9364529e-10
3.4801371e-10
2.7014204e-10
2.3511825e-10
5.1940827e-11
3.4233735e-11
5.1274561e-10
4.3007351e-11
4.5474107e-10
2.5826093e-09
3.0823194e-10
2.0336032e-10
1.1804411e-10
2.5720923e-10
1.9309698e-11
1.0348438e-11
5.7071179e-12
3.1830333e-12
2.0938934e-12
1.6620746e-12
1.4508302e-12
1.3436462e-12
1.2871199e-12
1.2653339e-12
1.2548607e-12
1.2578086e-12
1.269415e-12
1.2972947e-12
1.348369e-12
1.4270541e-12
1.5279937e-12
1.6540903e-12
1.8074307e-12
1.9938314e-12
2.218376e-12
2.4891069e-12
2.8136193e-12
3.2018744e-12
3.663588e-12
4.2083225e-12
4.8408691e-12
5.5609067e-12
6.3780087e-12
7.3123993e-12
8.3793571e-12
9.5910267e-12
1.0955366e-11
1.2471163e-11
1.4118496e-11
1.5838465e-11
1.7444106e-11
1.7466464e-11
2.3125534e-12
7.7130705e-11
3.3818516e-12
9.4281401e-11
4.654086e-12
5.7578954e-12
1.2759468e-10
1.3782063e-10
9.1988285e-12
5.5660144e-11
5.8222073e-11
5.9784075e-11
6.0167194e-11
5.9817057e-11
5.8806341e-11
5.8998376e-11
1.9802005e-10
2.3041824e-10
1.8490081e-11
2.161831e-11
3.4126959e-10
3.7750492e-10
4.1210189e-10
4.4634146e-10
4.8011394e-10
5.1365039e-10
5.469762e-10
5.8035987e-10
6.1402157e-10
6.48501e-10
6.8364462e-10
6.8485024e-10
5.0905696e-11
5.2682874e-11
5.4801558e-11
5.6905809e-11
5.8991809e-11
6.1058383e-11
6.3103152e-11
6.5124542e-11
6.7121928e-11
6.9101955e-11
7.1100101e-11
7.3339019e-11
8.0155786e-11
1.116814e-09
1.1501729e-09
1.1823589e-09
1.2156474e-09
1.1805697e-09
8.6807419e-11
8.8092784e-11
8.9977461e-11
9.1956612e-11
9.4116679e-11
9.6634802e-11
9.9907498e-11
1.0507562e-10
1.1914001e-10
5.6862815e-10
5.7942584e-10
5.8634178e-10
5.9280508e-10
5.9887744e-10
6.0462479e-10
6.1006149e-10
6.151983e-10
6.2003909e-10
6.2458804e-10
6.2884766e-10
6.3282103e-10
6.365111e-10
6.3992092e-10
6.4305411e-10
6.4591409e-10
6.4850502e-10
6.508307e-10
6.5289604e-10
6.5470551e-10
6.5626454e-10
6.5757796e-10
6.5865135e-10
6.5948994e-10
6.6009957e-10
6.6048573e-10
6.6065445e-10
6.6061146e-10
6.6036304e-10
6.5991496e-10
6.5927306e-10
6.5844272e-10
6.574294e-10
6.5623845e-10
6.5487504e-10
6.5334412e-10
6.5165089e-10
6.498002e-10
6.4779744e-10
6.4564747e-10
6.4335601e-10
6.4092796e-10
6.3836914e-10
6.356842e-10
6.3287853e-10
6.2995642e-10
6.2692262e-10
6.2378092e-10
6.2053547e-10
6.1718947e-10
6.1374644e-10
6.1020928e-10
6.0658115e-10
6.0286467e-10
5.9906256e-10
5.9517691e-10
5.9120785e-10
5.8716376e-10
5.8304171e-10
5.7884514e-10
5.7457594e-10
5.702367e-10
5.6582724e-10
5.6134905e-10
5.5680107e-10
5.5218555e-10
5.4750072e-10
5.4274986e-10
5.3792906e-10
5.3304192e-10
5.2808145e-10
5.2305127e-10
5.179417e-10
5.1275865e-10
5.0748709e-10
5.0213578e-10
4.9668272e-10
4.9114046e-10
4.8547688e-10
4.7971147e-10
4.7379895e-10
4.6776674e-10
4.615518e-10
4.5519453e-10
4.4860771e-10
4.4185019e-10
4.3480133e-10
4.2754391e-10
4.1991317e-10
4.1202536e-10
4.0365959e-10
3.949751e-10
3.8568612e-10
3.7600374e-10
3.6557559e-10
3.5466124e-10
3.4286548e-10
3.3047062e-10
3.1718621e-10
3.0316379e-10
2.8722032e-10
2.7165823e-10
2.6707804e-10
2.6828294e-10
2.7235777e-10
2.76896e-10
2.814268e-10
2.856076e-10
2.8914469e-10
2.9210743e-10
2.9430258e-10
2.9592433e-10
2.9689039e-10
2.974327e-10
2.9760645e-10
2.9775446e-10
2.9850663e-10
3.0011998e-10
3.0231715e-10
3.0500179e-10
3.0807079e-10
3.1148339e-10
3.1517597e-10
3.1908075e-10
3.2309421e-10
3.2709405e-10
3.3090391e-10
3.341702e-10
3.3599636e-10
3.360365e-10
3.3477429e-10
3.3248496e-10
3.2937996e-10
3.0565299e-10
1.6435954e-09
1.4019917e-09
1.2947749e-09
1.2583774e-09
1.2526807e-09
1.2656697e-09
1.296465e-09
1.3525276e-09
1.4288985e-09
1.5223855e-09
1.6351156e-09
1.7646415e-09
2.4893848e-09
2.7532378e-09
3.0491435e-09
3.4457768e-09
4.6046956e-10
5.9095576e-10
8.6105829e-10
1.1519462e-09
1.381733e-09
1.4724625e-09
1.4411711e-09
1.3126706e-09
5.8055868e-09
4.3341077e-09
3.0565556e-09
2.4049541e-09
2.085051e-09
4.2092627e-10
1.4159941e-10
2.4429978e-09
1.7762176e-10
2.1623378e-09
1.3203372e-08
1.4873274e-09
9.7821687e-10
5.7104664e-10
1.3380571e-09
8.9887513e-11
4.8197237e-11
2.6309003e-11
1.4673417e-11
9.5778172e-12
7.6412146e-12
6.6599558e-12
6.2003943e-12
5.9401617e-12
5.8629877e-12
5.822664e-12
5.8552582e-12
5.9197476e-12
6.0649453e-12
6.3117627e-12
6.6903658e-12
7.1704563e-12
7.7698992e-12
8.4952732e-12
9.3765398e-12
1.0435442e-11
1.1711413e-11
1.3238726e-11
1.5065222e-11
1.7235668e-11
1.9796191e-11
2.2769776e-11
2.6158401e-11
3.0006755e-11
3.4410499e-11
3.9443178e-11
4.5163208e-11
5.1610147e-11
5.8779869e-11
6.6580913e-11
7.4736664e-11
8.2355547e-11
8.1883456e-11
1.0481307e-11
3.6941199e-10
1.5447312e-11
4.4828117e-10
2.1195283e-11
2.7181191e-11
6.0580563e-10
6.4542036e-10
4.3369161e-11
2.6796739e-10
2.8000018e-10
2.875715e-10
2.8948483e-10
2.8780226e-10
2.8295295e-10
2.8388094e-10
9.2429041e-10
1.0731523e-09
8.806325e-11
1.0323678e-10
1.5896817e-09
1.7601769e-09
1.9211656e-09
2.0805592e-09
2.237756e-09
2.3939132e-09
2.5490869e-09
2.7045823e-09
2.8613877e-09
3.022058e-09
3.1857022e-09
3.17461e-09
2.4192438e-10
2.4998344e-10
2.6005668e-10
2.7006645e-10
2.7999244e-10
2.8982987e-10
2.9956663e-10
3.0919573e-10
3.1871374e-10
3.2815314e-10
3.3769033e-10
3.4854131e-10
3.8468231e-10
5.2020102e-09
5.3622648e-09
5.5126793e-09
5.6678702e-09
5.469342e-09
4.132189e-10
4.1887754e-10
4.2789931e-10
4.3737726e-10
4.4772388e-10
4.5978672e-10
4.7546894e-10
5.0034748e-10
5.7081277e-10
2.7282339e-09
2.7813088e-09
2.8146592e-09
2.8458454e-09
2.8751592e-09
2.9029174e-09
2.9291877e-09
2.954022e-09
2.9774377e-09
2.999455e-09
3.0200854e-09
3.0393434e-09
3.0572426e-09
3.0737975e-09
3.089025e-09
3.1029411e-09
3.1155656e-09
3.1269163e-09
3.1370165e-09
3.1458874e-09
3.1535546e-09
3.1600411e-09
3.1653733e-09
3.1695763e-09
3.1726777e-09
3.1747036e-09
3.1756828e-09
3.1756426e-09
3.1746128e-09
3.1726211e-09
3.1696953e-09
3.1658611e-09
3.1611446e-09
3.1555711e-09
3.1491656e-09
3.1419516e-09
3.133954e-09
3.125196e-09
3.1157034e-09
3.1054994e-09
3.0946114e-09
3.0830629e-09
3.0708819e-09
3.0580906e-09
3.0447149e-09
3.0307754e-09
3.016295e-09
3.0012917e-09
2.9857855e-09
2.969792e-09
2.9533279e-09
2.9364072e-09
2.9190451e-09
2.9012543e-09
2.8830477e-09
2.8644356e-09
2.8454186e-09
2.8260369e-09
2.8062766e-09
2.7861543e-09
2.7656789e-09
2.7448633e-09
2.7237063e-09
2.7022152e-09
2.6803852e-09
2.6582269e-09
2.635732e-09
2.6129162e-09
2.589761e-09
2.5662833e-09
2.5424501e-09
2.5182785e-09
2.4937222e-09
2.4688093e-09
2.4434681e-09
2.4177403e-09
2.3915205e-09
2.3648685e-09
2.3376308e-09
2.3099e-09
2.2814593e-09
2.2524397e-09
2.222539e-09
2.1919503e-09
2.1602551e-09
2.1277353e-09
2.0938118e-09
2.0588813e-09
2.0221526e-09
1.9841831e-09
1.9439119e-09
1.9021026e-09
1.8573828e-09
1.8107647e-09
1.7605562e-09
1.708002e-09
1.6512044e-09
1.5915161e-09
1.5275436e-09
1.4600101e-09
1.3832902e-09
1.3085071e-09
1.2865645e-09
1.2923804e-09
1.3120343e-09
1.3339298e-09
1.3557911e-09
1.3759752e-09
1.3930587e-09
1.4073809e-09
1.4180046e-09
1.4258705e-09
1.4305747e-09
1.4332411e-09
1.434135e-09
1.4349133e-09
1.4385937e-09
1.4463964e-09
1.4569781e-09
1.4698944e-09
1.4846419e-09
1.5010291e-09
1.5187406e-09
1.5374428e-09
1.5566353e-09
1.5757254e-09
1.5938659e-09
1.6093325e-09
1.6178399e-09
1.6177691e-09
1.6114336e-09
1.6001581e-09
1.5849215e-09
1.457942e-09
8.4123906e-09
7.2699509e-09
6.7419936e-09
6.5811766e-09
6.5820345e-09
6.6836536e-09
6.8830934e-09
7.221445e-09
7.6674483e-09
8.2010506e-09
8.8310932e-09
9.5326631e-09
1.3677398e-08
1.5151277e-08
1.6722394e-08
1.8898449e-08
2.2083261e-09
2.7744619e-09
4.0337365e-09
5.3932641e-09
6.4592721e-09
6.8851055e-09
6.7451604e-09
6.1520702e-09
2.9373448e-08
2.221365e-08
1.5674394e-08
1.2363651e-08
1.0710285e-08
2.0375063e-09
4.7486119e-10
8.4785861e-09
5.9565653e-10
7.4971998e-09
4.5573642e-08
5.2529301e-09
3.4379913e-09
2.0180621e-09
4.7097452e-09
3.1120197e-10
1.6783087e-10
9.1456271e-11
5.1007788e-11
3.3221702e-11
2.6510276e-11
2.3092038e-11
2.1515732e-11
2.0611327e-11
2.0357864e-11
2.0223353e-11
2.0348823e-11
2.0579633e-11
2.1093139e-11
2.1954582e-11
2.3275579e-11
2.4948022e-11
2.7036371e-11
2.9561367e-11
3.2628804e-11
3.6312893e-11
4.075177e-11
4.6063714e-11
5.2415764e-11
5.9963147e-11
6.8867402e-11
7.9209804e-11
9.1000357e-11
1.0439338e-10
1.1972137e-10
1.3724202e-10
1.5716016e-10
1.7961596e-10
2.0459799e-10
2.3179259e-10
2.6024467e-10
2.868194e-10
2.8345228e-10
3.7955094e-11
1.2017966e-09
5.6012856e-11
1.4496376e-09
7.6475893e-11
1.0067128e-10
1.9596818e-09
2.0623809e-09
1.5986755e-10
9.4286632e-10
9.8428293e-10
1.0109755e-09
1.0177693e-09
1.0118652e-09
9.9480053e-10
9.9856021e-10
2.9540247e-09
3.4220518e-09
3.2742837e-10
3.8502949e-10
5.0749089e-09
5.6236802e-09
6.1375868e-09
6.6464431e-09
7.1482449e-09
7.6467715e-09
8.1421372e-09
8.6385646e-09
9.1391674e-09
9.6521366e-09
1.0174098e-08
1.0083856e-08
8.992907e-10
9.2825808e-10
9.6568505e-10
1.0028817e-09
1.0397689e-09
1.0763293e-09
1.1125175e-09
1.1483076e-09
1.1836866e-09
1.2187762e-09
1.2542605e-09
1.2952836e-09
1.4412409e-09
1.6603621e-08
1.7125863e-08
1.7606479e-08
1.8100934e-08
1.7352847e-08
1.536309e-09
1.5561093e-09
1.5896543e-09
1.6248971e-09
1.6633648e-09
1.7082033e-09
1.7664932e-09
1.8593892e-09
2.1311249e-09
9.5780907e-09
9.7674988e-09
9.8847453e-09
9.9944025e-09
1.0097494e-08
1.0195131e-08
1.0287549e-08
1.037493e-08
1.0457335e-08
1.0534835e-08
1.0607468e-08
1.0675286e-08
1.0738336e-08
1.0796668e-08
1.0850341e-08
1.0899412e-08
1.0943948e-08
1.0984012e-08
1.1019686e-08
1.1051043e-08
1.1078172e-08
1.1101155e-08
1.1120084e-08
1.1135045e-08
1.1146136e-08
1.1153448e-08
1.1157081e-08
1.1157133e-08
1.1153705e-08
1.1146897e-08
1.1136804e-08
1.1123517e-08
1.1107127e-08
1.1087724e-08
1.1065394e-08
1.104022e-08
1.101229e-08
1.0981683e-08
1.0948492e-08
1.0912797e-08
1.0874694e-08
1.0834266e-08
1.0791612e-08
1.0746808e-08
1.0699946e-08
1.0651098e-08
1.0600346e-08
1.0547751e-08
1.0493384e-08
1.04373e-08
1.0379558e-08
1.0320207e-08
1.0259299e-08
1.0196881e-08
1.0132997e-08
1.0067684e-08
1.0000943e-08
9.9329161e-09
9.8635544e-09
9.7929162e-09
9.721033e-09
9.6479494e-09
9.5736626e-09
9.4981979e-09
9.4215378e-09
9.3437202e-09
9.2647162e-09
9.1845804e-09
9.1032484e-09
9.0207797e-09
8.9370581e-09
8.8521438e-09
8.7658746e-09
8.6783489e-09
8.5893152e-09
8.4989196e-09
8.4067922e-09
8.3131433e-09
8.217433e-09
8.1199873e-09
8.0200443e-09
7.9180641e-09
7.8129851e-09
7.7054855e-09
7.5940954e-09
7.4798047e-09
7.3605788e-09
7.2378116e-09
7.1087224e-09
6.9752707e-09
6.8337272e-09
6.6867767e-09
6.5295943e-09
6.3657395e-09
6.1892625e-09
6.00454e-09
5.8049006e-09
5.5950982e-09
5.3702246e-09
5.1328311e-09
4.8633634e-09
4.6010701e-09
4.5243657e-09
4.5448623e-09
4.6140706e-09
4.6911648e-09
4.7681456e-09
4.8392407e-09
4.8994371e-09
4.9499224e-09
4.9874017e-09
5.0151901e-09
5.0318579e-09
5.0413693e-09
5.0446636e-09
5.0475834e-09
5.0606758e-09
5.0881831e-09
5.125414e-09
5.1708292e-09
5.2226518e-09
5.2802111e-09
5.3423868e-09
5.4079998e-09
5.4752968e-09
5.5421733e-09
5.6056425e-09
5.6595809e-09
5.6890218e-09
5.6884244e-09
5.6658805e-09
5.6260234e-09
5.5722462e-09
5.0750789e-09
2.9075609e-08
2.5573293e-08
2.3853423e-08
2.342333e-08
2.3575085e-08
2.4100498e-08
2.4996256e-08
2.6417521e-08
2.8231386e-08
3.0352041e-08
3.2805299e-08
3.5418294e-08
5.0089318e-08
5.5483683e-08
6.1084686e-08
6.9453919e-08
7.9339132e-09
9.6903217e-09
1.4019968e-08
1.8709355e-08
2.2372162e-08
2.3832685e-08
2.3345405e-08
2.1275388e-08
1.0027429e-07
7.6847066e-08
5.428633e-08
4.2888993e-08
3.7147995e-08
7.2155717e-09
1.4107869e-09
2.3848911e-08
1.7658937e-09
2.1065121e-08
1.1521955e-07
1.5083399e-08
9.8192024e-09
5.7969678e-09
1.2097603e-08
8.7967985e-10
4.7774791e-10
2.6027296e-10
1.4516022e-10
9.4425934e-11
7.5302378e-11
6.5562812e-11
6.1089022e-11
5.8515284e-11
5.7803965e-11
5.7426531e-11
5.7791918e-11
5.8452184e-11
5.9914353e-11
6.2357807e-11
6.6106112e-11
7.0851869e-11
7.6778766e-11
8.3943855e-11
9.2648307e-11
1.0310156e-10
1.1569625e-10
1.3076723e-10
1.4878902e-10
1.7020205e-10
1.9546647e-10
2.2481673e-10
2.5828603e-10
2.9630877e-10
3.398267e-10
3.8957467e-10
4.4613766e-10
5.0991849e-10
5.8089149e-10
6.5817834e-10
7.3909153e-10
8.1462843e-10
8.014163e-10
1.1881706e-10
2.958547e-09
1.7503376e-10
3.5649632e-09
2.378078e-10
3.185871e-10
4.8412111e-09
5.0613584e-09
5.0291334e-10
2.6956285e-09
2.8126244e-09
2.8890712e-09
2.9086061e-09
2.8917719e-09
2.8428974e-09
2.854734e-09
7.2866224e-09
8.4263425e-09
1.034924e-09
1.2202145e-09
1.2507939e-08
1.3863688e-08
1.512955e-08
1.6382967e-08
1.7618891e-08
1.8846766e-08
2.0066772e-08
2.1289396e-08
2.2522235e-08
2.3785518e-08
2.507005e-08
2.4755512e-08
2.8417997e-09
2.9315745e-09
3.0497784e-09
3.1672635e-09
3.2837718e-09
3.3992501e-09
3.5135537e-09
3.626602e-09
3.7383519e-09
3.849191e-09
3.9613751e-09
4.0931636e-09
4.5817252e-09
4.0900575e-08
4.219356e-08
4.3377724e-08
4.4593282e-08
4.2562036e-08
4.854316e-09
4.9147942e-09
5.0207399e-09
5.1320412e-09
5.2534982e-09
5.395017e-09
5.5789392e-09
5.8732817e-09
6.7528777e-09
2.733248e-08
2.7877618e-08
2.8212522e-08
2.8525806e-08
2.882039e-08
2.9099434e-08
2.936361e-08
2.9613436e-08
2.9849084e-08
3.0070751e-08
3.0278551e-08
3.0472626e-08
3.0653108e-08
3.0820142e-08
3.0973892e-08
3.1114517e-08
3.1242211e-08
3.1357152e-08
3.1459567e-08
3.1549667e-08
3.1627705e-08
3.1693911e-08
3.1748545e-08
3.1791856e-08
3.1824118e-08
3.1845591e-08
3.185656e-08
3.1857297e-08
3.1848099e-08
3.1829242e-08
3.1801001e-08
3.1763632e-08
3.1717397e-08
3.1662547e-08
3.1599331e-08
3.1527984e-08
3.1448753e-08
3.136187e-08
3.1267594e-08
3.1166153e-08
3.1057826e-08
3.0942844e-08
3.0821489e-08
3.0693983e-08
3.0560584e-08
3.04215e-08
3.0276959e-08
3.0127143e-08
2.9972251e-08
2.9812441e-08
2.9647878e-08
2.9478706e-08
2.9305075e-08
2.9127113e-08
2.894495e-08
2.8758691e-08
2.8568339e-08
2.8374302e-08
2.8176437e-08
2.7974914e-08
2.776982e-08
2.7561285e-08
2.7349301e-08
2.713394e-08
2.6915151e-08
2.6693046e-08
2.646754e-08
2.6238789e-08
2.6006611e-08
2.5771175e-08
2.5532152e-08
2.5289711e-08
2.5043391e-08
2.4793472e-08
2.4539237e-08
2.4281103e-08
2.4018015e-08
2.3750573e-08
2.3477234e-08
2.3198933e-08
2.291349e-08
2.2622223e-08
2.2322096e-08
2.2015052e-08
2.1696887e-08
2.1370433e-08
2.1029875e-08
2.06792e-08
2.0310459e-08
1.9929256e-08
1.9524932e-08
1.9105165e-08
1.8656162e-08
1.8188103e-08
1.7683979e-08
1.7156307e-08
1.6586013e-08
1.598669e-08
1.5344263e-08
1.466607e-08
1.3896861e-08
1.3149165e-08
1.2931264e-08
1.2989961e-08
1.3188032e-08
1.3408621e-08
1.3628918e-08
1.3832423e-08
1.4004784e-08
1.4149406e-08
1.425685e-08
1.4336602e-08
1.4384576e-08
1.4412124e-08
1.4421944e-08
1.4430793e-08
1.4468609e-08
1.4547391e-08
1.4653857e-08
1.478363e-08
1.493166e-08
1.5095966e-08
1.5273356e-08
1.5460499e-08
1.5652309e-08
1.5842764e-08
1.6023301e-08
1.6176272e-08
1.6259162e-08
1.6256579e-08
1.6191523e-08
1.6077116e-08
1.5923388e-08
1.4349784e-08
7.3654049e-08
6.5860866e-08
6.1722567e-08
6.0883321e-08
6.1562148e-08
6.3233878e-08
6.5902786e-08
6.9991935e-08
7.512543e-08
8.1060761e-08
8.786058e-08
9.4788235e-08
1.2628634e-07
1.3932271e-07
1.530989e-07
1.7601386e-07
2.3375274e-08
2.7642409e-08
3.9720654e-08
5.2857582e-08
6.307272e-08
6.711902e-08
6.5719113e-08
5.9831043e-08
2.5065333e-07
1.9390433e-07
1.3724e-07
1.086656e-07
9.4175674e-08
2.0782442e-08
3.8730918e-09
5.7855403e-08
4.826297e-09
5.10396e-08
2.3020517e-07
3.7385931e-08
2.4223343e-08
1.4382336e-08
2.4366649e-08
2.1533443e-09
1.17797e-09
6.4179115e-10
3.5793739e-10
2.3259093e-10
1.8532789e-10
1.6128696e-10
1.5025812e-10
1.4391157e-10
1.4216422e-10
1.4124082e-10
1.4214748e-10
1.4377518e-10
1.473687e-10
1.5336301e-10
1.6256321e-10
1.7421668e-10
1.8877323e-10
2.0637088e-10
2.2774994e-10
2.5342338e-10
2.8435627e-10
3.2137031e-10
3.6563147e-10
4.1822217e-10
4.802763e-10
5.5237952e-10
6.3462341e-10
7.2806548e-10
8.3501418e-10
9.5728288e-10
1.0963158e-09
1.2531151e-09
1.4276351e-09
1.6177465e-09
1.8169061e-09
2.0027253e-09
1.9652057e-09
3.3536255e-10
6.0200445e-09
4.919305e-10
7.2876233e-09
6.6513882e-10
9.0001948e-10
9.9792954e-09
1.0435304e-08
1.4109892e-09
6.6564821e-09
6.9452603e-09
7.1344525e-09
7.1829716e-09
7.1414975e-09
7.0203576e-09
7.0497419e-09
1.5159059e-08
1.7518784e-08
2.9062732e-09
3.4330768e-09
2.6006575e-08
2.8814856e-08
3.1443286e-08
3.4045757e-08
3.6611596e-08
3.9160666e-08
4.1693155e-08
4.4230992e-08
4.6789813e-08
4.9411763e-08
5.2077375e-08
5.1380596e-08
7.9760789e-09
8.2263758e-09
8.5579084e-09
8.8874359e-09
9.2142194e-09
9.5381145e-09
9.8587144e-09
1.0175795e-08
1.0489233e-08
1.080012e-08
1.1115061e-08
1.1490716e-08
1.2908792e-08
8.4962979e-08
8.7621413e-08
9.0080186e-08
9.2602102e-08
8.8304554e-08
1.3620848e-08
1.3789252e-08
1.4086401e-08
1.4398534e-08
1.473904e-08
1.5135578e-08
1.5650655e-08
1.6477852e-08
1.8975356e-08
6.7374968e-08
6.8718698e-08
6.9545228e-08
7.0318623e-08
7.1046062e-08
7.1735312e-08
7.238802e-08
7.3005449e-08
7.3588022e-08
7.413622e-08
7.4650312e-08
7.5130648e-08
7.5577545e-08
7.5991352e-08
7.6372469e-08
7.6721283e-08
7.7038261e-08
7.7323837e-08
7.7578565e-08
7.7802959e-08
7.7997638e-08
7.8163156e-08
7.8300155e-08
7.8409238e-08
7.8491076e-08
7.8546307e-08
7.8575624e-08
7.8579696e-08
7.855925e-08
7.8514958e-08
7.8447498e-08
7.8357496e-08
7.8245594e-08
7.8112406e-08
7.7958545e-08
7.7784584e-08
7.7591133e-08
7.737876e-08
7.7148099e-08
7.6899717e-08
7.663429e-08
7.6352396e-08
7.605472e-08
7.5741814e-08
7.5414314e-08
7.5072727e-08
7.4717622e-08
7.4349442e-08
7.3968679e-08
7.3575722e-08
7.3170981e-08
7.2754809e-08
7.2327573e-08
7.1889598e-08
7.1441198e-08
7.0982638e-08
7.0513915e-08
7.003605e-08
6.9548685e-08
6.9052238e-08
6.8546931e-08
6.8033079e-08
6.7510666e-08
6.6979872e-08
6.6440575e-08
6.5893043e-08
6.5337077e-08
6.4773061e-08
6.4200544e-08
6.3619947e-08
6.3030455e-08
6.2432493e-08
6.1824919e-08
6.120843e-08
6.0581255e-08
5.9944426e-08
5.9295337e-08
5.8635474e-08
5.7961028e-08
5.7274308e-08
5.6569935e-08
5.5851164e-08
5.5110501e-08
5.4352745e-08
5.3567516e-08
5.2761816e-08
5.1921278e-08
5.1055762e-08
5.0145628e-08
4.9204736e-08
4.8206746e-08
4.7170644e-08
4.606235e-08
4.4907035e-08
4.3662666e-08
4.2360193e-08
4.0952477e-08
3.9473114e-08
3.7887188e-08
3.621297e-08
3.4315564e-08
3.2473659e-08
3.1938757e-08