/*--------------------------------*- C++ -*----------------------------------*\
| =========                 |                                                 |
| \\      /  F ield         | OpenFOAM: The Open Source CFD Toolbox           |
|  \\    /   O peration     | Version:  2.4.0                                 |
|   \\  /    A nd           | Web:      www.OpenFOAM.org                      |
|    \\/     M anipulation  |                                                 |
\*---------------------------------------------------------------------------*/
FoamFile
{
    version     2.0;
    format      ascii;
    class       volScalarField;
    location    "350";
    object      omega;
}
// * * * * * * * * * * * * * * * * * * * * * * * * * * * * * * * * * * * * * //

dimensions      [0 0 -1 0 0 0 0];

internalField   nonuniform List<scalar> 
78300
(
288636.63
288686.54
288700.32
288833.65
289515.6
291432.02
295479.08
302673.01
314010.37
329813.04
346787.82
362441.63
375829.98
386411.76
393919.79
398343.7
399991.89
399060.36
395721.33
390174.45
382632.29
373308
362413.46
350675.33
339521.98
329123.31
319421.78
310364.21
301901.89
293992.53
286594.56
279672.29
273192.3
267123.9
261439.18
256109.32
250877.53
245350.68
239525.68
233441.11
227134.93
220644.17
214005.21
207254.37
200428.97
193566.99
186709.47
179903.22
173262.16
167044.3
161298.04
156019.07
151204.62
146855.25
142973.85
139564.67
136634.53
134192.24
132247.52
130811.23
129895.27
129511.99
129657.27
129783.85
129783.85
129783.85
129783.85
129783.85
129783.85
129783.85
129783.85
129783.85
129783.85
129783.85
129783.85
129783.85
129783.85
129783.85
129783.85
129783.85
129783.85
129783.85
129783.85
129783.85
129783.85
129783.85
129783.85
129783.85
129783.85
129783.85
129783.85
129783.85
129783.85
129783.85
129783.85
129783.85
129783.85
129783.85
129783.85
129783.85
129783.85
129783.85
129783.85
129783.85
129783.85
129783.85
129783.85
129783.85
129783.85
129783.85
129783.85
129783.85
129783.85
129783.85
129783.85
129783.85
129783.85
129783.85
129783.85
129783.85
129783.85
129783.85
129783.84
129783.85
129783.85
129783.85
129783.85
129783.84
129783.85
129783.85
129783.85
129783.85
129783.85
129783.85
129783.85
129783.85
129783.84
129783.85
129783.85
129783.84
129783.85
129783.85
129783.85
129783.85
129783.85
129783.84
129783.85
129783.85
129783.85
129783.85
129783.85
129783.85
129783.85
129783.85
129783.84
129783.85
129783.85
129783.85
129783.84
129783.85
129783.85
129783.84
129783.85
129783.85
129783.84
129783.85
129783.85
129783.84
129783.85
129783.85
129783.85
129783.85
129783.85
129783.85
129783.85
129783.84
129783.85
129783.85
129783.85
129783.85
129783.85
129783.85
129783.85
129783.85
129783.85
129783.85
129783.85
129783.85
129783.85
129783.85
129783.85
129783.85
129783.85
129783.85
129783.84
129783.85
129783.85
129783.84
129783.85
129783.85
129783.85
129783.85
129783.85
129783.84
129783.85
129783.85
129783.84
129657.28
129512.01
129895.29
130811.3
132247.51
134192.34
136634.64
139564.65
142973.98
146855.32
151204.67
156018.82
161297.58
167043.87
173262.26
179902.7
186708.68
193567.05
200429.57
207253.32
214004.05
220644.49
227134.65
233439.26
239524.1
245352.66
250877.67
256108.08
261440.19
267124.37
273191.43
279670.54
286594.56
293991.4
301901.42
310366.51
319421.34
329122.77
339524.25
350675.48
362412.53
373310.22
382630.09
390168.82
395719.59
399058.71
399989.89
398342.36
393921.49
386411.4
375828.68
362441.02
346789.97
329814.86
314010.09
302672.88
295478.99
291431.81
289515.62
288834.57
288701.21
288686.52
288636.62
56888.582
48872.867
56893.399
48896.489
40290.395
49287.481
49991.591
51201.39
43613.72
53537.204
56295.08
58837.595
61013.171
62733.516
63955.007
64675.646
64945.527
64796.443
64256.42
63357.806
62135.133
60622.983
58855.51
56949.985
55138.624
53449.728
51874.084
50403.032
49028.705
47744.162
46542.681
45418.377
44365.876
43380.167
42456.751
41591.101
40741.821
39844.882
38899.567
37912.168
36888.831
35835.625
34758.574
33663.75
32557.432
31446.258
30360.075
35130.728
24360.349
32562.992
22714.468
30374.375
29408.353
20721.581
20192.421
27077.252
23125.855
22711.278
22382.079
22138.961
21983.941
21919.083
21939.317
18370.782
18372.867
25146.105
25137.672
18363.169
18361.257
18361.035
18360.917
18360.816
18360.764
18360.721
18360.705
18360.698
18360.717
18360.861
18372.898
25148.315
25150.663
25150.629
25150.587
25150.543
25150.493
25150.438
25150.379
25150.314
25150.243
25150.158
25149.848
25130.419
18363.07
18361.534
18361.676
18362.013
18376.303
25146.864
25149.078
25148.889
25148.67
25148.409
25148.076
25147.596
25146.627
25133.901
21962.596
21961.608
21961.606
21961.604
21961.603
21961.601
21961.6
21961.599
21961.598
21961.596
21961.595
21961.594
21961.592
21961.591
21961.59
21961.589
21961.587
21961.586
21961.585
21961.584
21961.583
21961.581
21961.58
21961.579
21961.578
21961.577
21961.576
21961.575
21961.574
21961.573
21961.572
21961.571
21961.57
21961.569
21961.568
21961.567
21961.566
21961.565
21961.565
21961.564
21961.563
21961.563
21961.562
21961.561
21961.561
21961.56
21961.56
21961.559
21961.558
21961.559
21961.558
21961.558
21961.557
21961.557
21961.556
21961.556
21961.556
21961.555
21961.555
21961.555
21961.555
21961.554
21961.554
21961.554
21961.554
21961.554
21961.554
21961.554
21961.554
21961.553
21961.554
21961.554
21961.554
21961.554
21961.554
21961.554
21961.554
21961.555
21961.555
21961.555
21961.555
21961.555
21961.556
21961.556
21961.556
21961.557
21961.557
21961.557
21961.557
21961.559
21961.559
21961.56
21961.561
21961.562
21961.563
21961.564
21961.566
21961.567
21961.57
21961.574
21962.077
21942.386
21919.05
21983.957
22138.99
22382.1
22711.31
23124.744
23620.736
24197.885
24854.902
25591.134
26406.056
27299.591
28272.252
29324.774
30448.544
31600.089
32760.34
33921.299
35075.784
36217.756
37341.021
38438.831
39505.253
40534.392
41519.974
42454.403
43339.365
44241.765
45203.788
46230.697
47327.751
48496.065
40892.488
41961.039
43115.972
44351.116
45674.039
47091.947
48611.382
50209.487
51692.041
52959.514
53984.713
54735.875
54445.228
54494.221
54250.313
53677.582
62657.667
61008.971
58837.532
56296.164
53540.829
50978.303
49142.035
47978.272
40573.26
40267.972
40174.315
40158.807
40158.677
48824.121
23880.009
16196.238
23874.536
16204.493
10536.598
16268.818
16529.838
16913.281
11326.473
17966.063
18879.832
19732.915
20463.234
21041.027
21451.488
21693.935
21785.111
21735.727
21555.172
21254.28
20844.643
20337.884
19745.345
19106.222
18498.466
17931.769
17403.06
16909.453
16448.299
16017.27
15614.121
15236.878
14883.728
14552.991
14243.155
13952.745
13667.899
13367.111
13050.099
12718.956
12375.737
12022.466
11661.149
11293.813
10922.532
10549.642
10212.018
14270.178
6606.3888
13167.558
6194.4715
12251.991
11787.995
5679.9441
5566.1286
10803.54
7645.3217
7510.7622
7401.8787
7321.4747
7270.2187
7248.824
7251.8958
5094.1508
5098.603
9980.6874
9968.1238
5091.1718
5087.8001
5087.6835
5087.624
5087.5735
5087.549
5087.5293
5087.5245
5087.5244
5087.5398
5087.725
5103.3281
9982.9885
9988.6637
9988.629
9988.5856
9988.5394
9988.4884
9988.4338
9988.3745
9988.311
9988.2415
9988.1531
9987.5939
9952.4185
5090.7268
5088.0189
5088.0997
5088.4273
5107.2148
9982.1964
9987.1413
9986.9693
9986.7686
9986.5309
9986.2297
9985.7931
9984.7679
9963.8112
7263.89
7262.0358
7262.0313
7262.0282
7262.0253
7262.0223
7262.0193
7262.0164
7262.0134
7262.0103
7262.0072
7262.0042
7262.001
7261.9979
7261.9947
7261.9916
7261.9884
7261.9854
7261.9822
7261.9791
7261.976
7261.9729
7261.9699
7261.9668
7261.9639
7261.9609
7261.958
7261.9552
7261.9523
7261.9497
7261.9468
7261.9443
7261.9417
7261.9391
7261.9367
7261.9343
7261.9319
7261.9296
7261.9274
7261.9252
7261.9233
7261.9211
7261.9192
7261.9173
7261.9156
7261.9138
7261.9121
7261.9106
7261.9089
7261.9076
7261.9061
7261.9048
7261.9034
7261.9023
7261.9011
7261.9
7261.899
7261.898
7261.8971
7261.8964
7261.8956
7261.8947
7261.8942
7261.8936
7261.8929
7261.8924
7261.8921
7261.8916
7261.8913
7261.8908
7261.8907
7261.8904
7261.8903
7261.8901
7261.8901
7261.8901
7261.8901
7261.8902
7261.8902
7261.8905
7261.8907
7261.891
7261.8914
7261.8917
7261.8922
7261.8929
7261.8935
7261.8943
7261.8951
7261.8962
7261.8973
7261.8987
7261.9004
7261.9022
7261.9043
7261.9068
7261.9096
7261.9129
7261.917
7261.9233
7262.2201
7256.1578
7248.7585
7270.2349
7321.5064
7401.9192
7510.8101
7647.56
7811.6207
8002.5277
8219.851
8463.3747
8732.9201
9028.4685
9350.1803
9698.2978
10069.925
10450.685
10834.296
11218.117
11599.807
11977.351
12348.691
12711.605
13064.13
13404.303
13730.079
14038.971
14331.548
14629.981
14948.181
15287.819
15650.92
16056.292
10684.465
10917.813
11197.332
11495.9
11815.142
12156.776
12522.235
12905.724
13260.66
13563.85
13809.241
13987.84
12662.542
12547.231
12456.155
12342.885
20865.87
20455.571
19733.282
18881.658
17958.569
17100.825
16486.455
16099.992
10633.973
10506.908
10482.587
10479.96
10481.912
16116.268
14241.401
7506.3843
14230.758
7511.8991
3641.9011
7470.3126
7620.4318
7779.0995
3858.9553
8356.8763
8767.1651
9163.3128
9502.6684
9771.3289
9962.2555
10075.152
10117.756
10095.076
10011.452
9871.9383
9681.9038
9446.7563
9171.726
8874.9439
8592.6302
8329.3755
8083.7648
7854.4632
7640.2354
7440.0033
7252.7226
7077.479
6913.4273
6759.7892
6615.859
6480.9603
6348.6824
6209.0261
6061.8365
5908.0778
5748.7011
5584.6473
5416.8447
5246.2293
5073.7567
4900.6891
4767.4084
8073.3892
2449.1966
7400.1039
2320.455
6864.2686
6531.3711
2145.6602
2127.119
5951.9135
3521.9826
3462.54
3412.3442
3375.2887
3351.6804
3341.8851
3340.2382
1965.5765
1970.9397
5452.4406
5435.8096
1964.6137
1961.2014
1961.1412
1961.1139
1961.0918
1961.0838
1961.0785
1961.0813
1961.0867
1961.1024
1961.3041
1977.4115
5454.4855
5461.8597
5461.828
5461.7857
5461.7416
5461.6937
5461.6431
5461.5887
5461.531
5461.4681
5461.381
5460.5482
5413.9392
1964.1556
1961.4264
1961.4757
1961.7912
1981.2309
5454.1981
5460.5181
5460.3774
5460.2112
5460.0163
5459.7711
5459.4126
5458.3777
5431.5116
3349.8636
3347.7057
3347.6983
3347.6928
3347.6876
3347.6823
3347.677
3347.6716
3347.666
3347.6604
3347.6547
3347.6489
3347.643
3347.6371
3347.6311
3347.6252
3347.6191
3347.6131
3347.6071
3347.6011
3347.5951
3347.5891
3347.5832
3347.5773
3347.5715
3347.5657
3347.56
3347.5544
3347.5488
3347.5433
3347.5379
3347.5326
3347.5274
3347.5223
3347.5173
3347.5125
3347.5077
3347.503
3347.4985
3347.4941
3347.4899
3347.4857
3347.4817
3347.4778
3347.474
3347.4704
3347.4669
3347.4635
3347.4602
3347.4571
3347.4541
3347.4513
3347.4485
3347.4459
3347.4433
3347.4409
3347.4387
3347.4366
3347.4345
3347.4327
3347.4308
3347.4291
3347.4276
3347.4261
3347.4247
3347.4235
3347.4223
3347.4213
3347.4203
3347.4194
3347.4187
3347.418
3347.4174
3347.4169
3347.4165
3347.4162
3347.4159
3347.4158
3347.4157
3347.4158
3347.4159
3347.4161
3347.4165
3347.417
3347.4176
3347.4184
3347.4192
3347.4203
3347.4215
3347.423
3347.4247
3347.4267
3347.4291
3347.4318
3347.4349
3347.4386
3347.4427
3347.4477
3347.4537
3347.4617
3347.6569
3345.0617
3341.7863
3351.6904
3375.3211
3412.3929
3462.5939
3525.64
3601.2799
3689.2938
3789.4864
3901.7579
4026.0272
4162.2835
4310.5977
4471.0793
4642.369
4817.8507
4994.6348
5171.5069
5347.4002
5521.374
5692.4831
5859.7117
6022.1563
6178.8997
6329.0009
6471.3242
6606.166
6743.7525
6890.4706
7047.0788
7214.6671
7425.9025
3687.5264
3732.5126
3813.4008
3899.5634
3991.312
4089.0691
4193.1504
4301.7149
4401.6718
4487.0067
4556.4046
4608.6158
3942.8418
3881.918
3852.0405
3818.9942
9522.1534
9491.4886
9164.9067
8771.0537
8343.9955
7947.376
7663.1996
7488.0843
3695.0989
3614.4731
3605.7416
3605.4018
3607.45
7398.3672
9882.4098
4205.0203
9868.9667
4210.7203
1544.0088
4118.4117
4228.9353
4300.6943
1600.6803
4669.6998
4884.3933
5105.0303
5294.1978
5444.1088
5550.6707
5613.7599
5637.6427
5625.1553
5578.6859
5501.078
5395.3083
5264.4017
5111.2497
4945.9173
4788.5865
4641.8705
4504.9872
4377.1951
4257.8031
4146.2132
4041.8409
3944.1775
3852.752
3767.1308
3686.9179
3611.7401
3538.0415
3460.2487
3378.2564
3292.5997
3203.8102
3112.4105
3018.9148
2923.8441
2827.7303
2731.4849
2675.3534
5274.1378
1144.4598
4799.2136
1099.0694
4438.7697
4166.5378
1026.097
1033.4807
3776.0697
1952.1245
1921.0874
1893.2385
1872.6948
1859.6215
1854.2615
1851.035
965.20373
970.861
3426.2969
3406.9677
965.14404
962.15579
962.12912
962.12196
962.11785
962.12129
962.12622
962.13526
962.14575
962.16336
962.36952
977.81834
3427.9683
3435.7
3435.672
3435.6321
3435.591
3435.547
3435.5011
3435.4523
3435.401
3435.3453
3435.2588
3434.1632
3381.9821
964.80211
962.4191
962.4507
962.75168
981.37277
3427.97
3434.5448
3434.4341
3434.3014
3434.1477
3433.9566
3433.6729
3432.6278
3402.8378
1859.6036
1857.4688
1857.458
1857.4494
1857.4412
1857.4328
1857.4243
1857.4156
1857.4066
1857.3975
1857.3883
1857.3789
1857.3693
1857.3597
1857.3499
1857.3401
1857.3302
1857.3203
1857.3104
1857.3005
1857.2906
1857.2807
1857.2709
1857.2611
1857.2514
1857.2418
1857.2323
1857.2229
1857.2136
1857.2044
1857.1954
1857.1865
1857.1778
1857.1692
1857.1608
1857.1526
1857.1446
1857.1367
1857.1291
1857.1216
1857.1144
1857.1073
1857.1005
1857.0938
1857.0874
1857.0812
1857.0752
1857.0694
1857.0638
1857.0584
1857.0532
1857.0483
1857.0435
1857.039
1857.0346
1857.0304
1857.0265
1857.0227
1857.0192
1857.0158
1857.0126
1857.0096
1857.0068
1857.0042
1857.0017
1856.9994
1856.9973
1856.9953
1856.9935
1856.9918
1856.9904
1856.989
1856.9878
1856.9868
1856.9859
1856.9851
1856.9845
1856.9841
1856.9838
1856.9836
1856.9836
1856.9837
1856.9841
1856.9846
1856.9853
1856.9862
1856.9873
1856.9887
1856.9903
1856.9922
1856.9946
1856.9972
1857.0004
1857.0041
1857.0083
1857.0133
1857.019
1857.0256
1857.0336
1857.0435
1857.1863
1855.8615
1854.1187
1859.615
1872.7192
1893.2843
1921.1349
1956.1131
1998.0781
2046.909
2102.4967
2164.7842
2233.7287
2309.3219
2391.603
2480.6308
2575.6405
2672.9639
2771.0016
2869.0848
2966.6261
3063.0988
3157.9821
3250.7145
3340.7944
3427.7152
3510.9504
3589.8808
3664.6852
3741.0357
3822.4639
3909.3765
4002.4659
4143.2596
1559.76
1554.293
1578.3708
1603.8304
1630.5768
1658.6564
1688.0571
1718.1187
1745.4864
1769.0743
1788.8729
1806.5591
1464.1148
1432.4988
1423.7973
1412.0549
5148.7473
5279.8019
5108.4237
4891.1153
4655.0982
4435.8751
4278.4975
4184.9001
1581.0811
1522.0497
1517.7562
1517.5824
1519.2091
4075.9475
7295.6894
2654.2245
7281.4577
2660.9412
799.13673
2541.0617
2632.5298
2663.8302
807.52566
2925.0494
3046.5278
3184.0556
3302.0925
3395.781
3462.3819
3501.8712
3516.865
3509.1782
3480.268
3431.9386
3366.0293
3284.4431
3188.9674
3085.8582
2987.6995
2896.1594
2810.7541
2731.023
2656.5328
2586.9116
2521.794
2460.8634
2403.8245
2350.407
2300.3618
2253.4586
2207.4886
2158.9748
2107.841
2054.419
1999.0397
1942.0286
1883.7063
1824.3972
1764.4333
1704.6015
1682.5544
3667.0973
655.08072
3313.7059
637.17591
3057.5853
2829.7199
599.35066
613.17706
2552.4764
1213.2782
1195.2001
1177.874
1165.1105
1157.0054
1153.7523
1150.1955
577.20626
582.87521
2294.916
2274.6348
577.53245
575.05364
575.0483
575.05496
575.06355
575.07579
575.08883
575.10366
575.11915
575.13965
575.34683
589.78416
2296.2068
2303.4126
2303.3886
2303.3519
2303.3145
2303.2751
2303.2342
2303.1911
2303.1461
2303.0972
2303.0102
2301.6976
2249.303
577.34765
575.37451
575.39584
575.68455
593.03571
2296.3319
2302.4276
2302.3418
2302.2373
2302.1184
2301.9728
2301.7511
2300.6967
2270.7203
1157.8071
1155.8723
1155.8575
1155.8451
1155.833
1155.8207
1155.8081
1155.7952
1155.782
1155.7685
1155.7548
1155.7408
1155.7267
1155.7123
1155.6978
1155.6832
1155.6685
1155.6538
1155.639
1155.6242
1155.6094
1155.5947
1155.58
1155.5654
1155.5509
1155.5365
1155.5222
1155.5081
1155.4942
1155.4805
1155.467
1155.4536
1155.4406
1155.4277
1155.4151
1155.4027
1155.3907
1155.3789
1155.3674
1155.3561
1155.3452
1155.3346
1155.3243
1155.3143
1155.3046
1155.2952
1155.2861
1155.2773
1155.2688
1155.2607
1155.2529
1155.2453
1155.2381
1155.2312
1155.2246
1155.2182
1155.2122
1155.2065
1155.201
1155.1959
1155.191
1155.1864
1155.1821
1155.178
1155.1742
1155.1706
1155.1674
1155.1643
1155.1615
1155.1589
1155.1566
1155.1545
1155.1526
1155.1509
1155.1494
1155.1482
1155.1472
1155.1463
1155.1457
1155.1454
1155.1452
1155.1453
1155.1456
1155.1461
1155.147
1155.1481
1155.1496
1155.1512
1155.1534
1155.1559
1155.159
1155.1624
1155.1666
1155.1713
1155.1769
1155.1833
1155.1908
1155.1993
1155.2096
1155.2215
1155.3342
1154.5866
1153.5485
1156.9683
1165.1144
1177.9046
1195.2279
1216.9856
1243.0902
1273.4662
1308.0457
1346.7922
1389.6799
1436.7027
1487.8845
1543.2604
1602.3486
1662.8678
1723.8268
1784.8122
1845.4607
1905.4445
1964.4408
2022.1009
2078.1123
2132.1616
2183.9219
2233.0151
2279.5654
2327.0927
2377.7801
2431.88
2489.8331
2597.9077
803.60506
784.3334
790.26519
796.48553
802.78851
809.18131
815.65662
822.02043
827.78531
833.05669
837.99395
845.26604
674.12859
657.32264
654.5105
645.86983
3079.8547
3285.0878
3189.6429
3056.5648
2911.4633
2776.5609
2679.2983
2624.2091
828.70261
782.61645
779.67298
779.18071
780.29443
2511.7637
5515.4241
1817.2461
5502.0472
1825.0656
504.42574
1691.3032
1770.3157
1781.028
498.38565
1978.5394
2049.7827
2142.211
2221.6438
2284.8361
2329.7506
2356.4316
2366.5898
2361.4939
2342.0904
2309.6271
2265.3233
2210.475
2146.2718
2076.9104
2010.8503
1949.2425
1891.7631
1838.1046
1787.9734
1741.1206
1697.299
1656.2964
1617.9131
1581.9669
1548.2886
1516.7238
1485.7922
1453.1566
1418.7577
1382.817
1345.5568
1307.1955
1267.9491
1228.0353
1187.6795
1147.6175
1141.5117
2621.6137
444.90727
2354.2812
436.30399
2168.5526
1979.8447
411.64765
425.76114
1779.1957
814.34215
802.86616
791.22741
782.67357
777.26076
775.16578
771.89208
401.96127
407.46363
1587.0629
1567.3798
402.42991
400.43104
400.44064
400.45779
400.47627
400.49604
400.51619
400.53667
400.55723
400.58113
400.78827
414.05931
1588.0311
1594.2536
1594.2339
1594.2015
1594.1689
1594.1345
1594.099
1594.0617
1594.0228
1593.9802
1593.892
1592.4307
1543.7211
402.41015
400.8199
400.83456
401.11295
417.00063
1588.1788
1593.4197
1593.3528
1593.2705
1593.1788
1593.0687
1592.8943
1591.8382
1563.6864
778.46786
776.81088
776.79148
776.77445
776.75774
776.74064
776.72314
776.70517
776.6868
776.66803
776.64891
776.62948
776.60976
776.58982
776.56967
776.54936
776.52893
776.50843
776.48787
776.46731
776.44676
776.42627
776.40586
776.38556
776.36541
776.34542
776.32563
776.30606
776.28673
776.26766
776.24887
776.23037
776.21219
776.19433
776.17683
776.15968
776.1429
776.12651
776.11052
776.09493
776.07975
776.06499
776.05065
776.03674
776.02326
776.0102
775.99759
775.9854
775.97364
775.96232
775.95142
775.94096
775.93091
775.92129
775.91208
775.90327
775.89495
775.88695
775.87939
775.87222
775.86545
775.85905
775.85302
775.84737
775.84207
775.83714
775.83256
775.82832
775.82442
775.82083
775.81757
775.81462
775.81199
775.80964
775.80762
775.80587
775.80444
775.80328
775.80245
775.80188
775.80165
775.80168
775.8021
775.80277
775.8039
775.80529
775.80719
775.80938
775.81221
775.81537
775.81935
775.82372
775.82915
775.83509
775.84235
775.85036
775.85987
775.87055
775.88335
775.89769
775.99206
775.54566
774.8792
777.17596
782.64106
791.22743
802.85903
817.46891
834.99904
855.39748
878.61945
904.63963
933.44096
965.01843
999.3885
1036.5728
1076.2448
1116.8713
1157.7901
1198.7264
1239.4361
1279.7016
1319.3057
1358.013
1395.617
1431.9079
1466.6662
1499.6426
1530.9315
1562.8887
1596.9711
1633.3477
1672.2702
1761.4956
503.94399
482.05523
482.31335
482.71843
483.0126
483.22138
483.35831
483.35236
483.36882
483.68071
484.40151
488.51185
403.86811
394.31434
393.26065
384.25312
1969.7438
2202.8927
2150.2262
2063.3625
1967.9434
1879.1145
1814.6239
1780.1658
530.27335
492.42662
489.79743
488.88874
489.50696
1668.8045
4201.0808
1318.8885
4189.7216
1327.5721
376.49237
1189.5439
1258.2022
1258.1745
366.60132
1413.506
1455.612
1521.1298
1577.5287
1622.5409
1654.5205
1673.5616
1680.8281
1677.2697
1663.5231
1640.5097
1609.0769
1570.161
1524.5957
1475.3537
1428.4331
1384.6741
1343.8468
1305.7357
1270.1302
1236.8551
1205.7333
1176.6149
1149.3572
1123.8304
1099.9129
1077.4947
1055.5286
1032.358
1007.9347
982.4145
955.95538
928.71155
900.83617
872.48427
843.81817
815.54232
816.71155
1899.2582
342.41533
1696.6661
336.62943
1561.0811
1407.8203
317.16123
329.51656
1261.6799
577.4114
569.55177
561.29619
555.25037
551.44575
550.06003
547.37938
310.60066
315.77931
1118.5552
1100.5809
311.09599
309.52295
309.544
309.56975
309.59655
309.62313
309.64983
309.67584
309.70145
309.72871
309.93355
321.88783
1119.2867
1124.3772
1124.3621
1124.3352
1124.308
1124.2793
1124.2495
1124.218
1124.1851
1124.1483
1124.059
1122.5261
1079.8014
311.23538
309.98194
309.99127
310.25746
324.50386
1119.4077
1123.6761
1123.6227
1123.5568
1123.4853
1123.4012
1123.2602
1122.2156
1097.0976
552.87335
551.50997
551.48528
551.46277
551.44056
551.41782
551.39454
551.37067
551.34627
551.32137
551.29602
551.27027
551.24417
551.21779
551.19115
551.16433
551.13735
551.11029
551.08318
551.05607
551.02899
551.002
550.97513
550.94842
550.92191
550.89563
550.86961
550.8439
550.8185
550.79345
550.76877
550.7445
550.72064
550.69722
550.67427
550.65179
550.6298
550.60832
550.58737
550.56695
550.54708
550.52776
550.50899
550.4908
550.47316
550.4561
550.4396
550.42368
550.40832
550.39354
550.37932
550.36567
550.35257
550.34003
550.32803
550.31656
550.30574
550.29534
550.28551
550.2762
550.26741
550.25911
550.25131
550.244
550.23716
550.23079
550.2249
550.21944
550.21443
550.20983
550.20568
550.20192
550.19859
550.19563
550.19309
550.19092
550.18916
550.18774
550.18677
550.18612
550.18593
550.18606
550.18671
550.18767
550.18921
550.19106
550.19359
550.19646
550.20015
550.20422
550.20934
550.21489
550.22179
550.22925
550.23839
550.24835
550.26023
550.27338
550.28907
550.30622
550.389
550.11591
549.66455
551.29266
555.16217
561.24714
569.49205
579.84923
592.2782
606.74072
623.20594
641.65508
662.07674
684.46609
708.83547
735.19888
763.32231
792.11686
821.1172
850.13066
878.98439
907.52433
935.59731
963.03672
989.69831
1015.4343
1040.0892
1063.4899
1085.7126
1108.4205
1132.6376
1158.483
1186.068
1262.1759
374.08553
353.04153
351.79442
350.78784
349.69809
348.55648
347.37959
346.1087
344.97851
344.2298
343.92983
347.14727
304.68665
298.66848
298.22085
288.59186
1324.5391
1558.0979
1531.6566
1472.7281
1407.1899
1346.1394
1301.4109
1278.9847
400.66136
368.1896
365.45909
364.12386
364.25784
1171.1186
3202.0985
999.36362
3193.3973
1008.5364
315.35185
873.37406
932.32987
926.85557
304.95986
1051.6016
1076.0911
1124.391
1166.0594
1199.4592
1223.172
1237.3305
1242.7437
1240.1631
1230.0229
1213.0404
1189.8232
1161.0802
1127.4176
1091.0291
1056.3378
1023.9836
993.79694
965.62093
939.29766
914.69934
891.69359
870.17038
850.02314
831.15577
813.47651
796.90297
780.66469
763.54018
745.48902
726.62529
707.06539
686.92289
666.3109
645.34411
624.14553
603.38601
607.43048
1386.3417
285.06641
1233.394
279.67532
1134.2264
1012.268
262.36456
272.31711
905.59275
426.54975
420.78654
414.68996
410.24824
407.47628
406.56459
404.61105
255.5784
260.28877
799.66669
784.03845
256.04623
254.84329
254.87364
254.90669
254.94072
254.97349
255.00621
255.0375
255.06787
255.0979
255.29543
265.78126
800.24926
804.24745
804.23747
804.21666
804.1954
804.17257
804.14858
804.12282
804.09546
804.06394
803.97368
802.44385
766.6614
256.3297
255.3661
255.36988
255.61731
268.05012
800.32538
803.6604
803.61592
803.56149
803.50382
803.43752
803.31821
802.29968
780.74626
409.04094
407.9513
407.92054
407.89175
407.86321
407.834
407.80414
407.77357
407.74236
407.71055
407.67821
407.6454
407.61218
407.57863
407.5448
407.51076
407.47657
407.44229
407.40798
407.37369
407.33948
407.30539
407.27148
407.23779
407.20438
407.17127
407.13852
407.10615
407.07422
407.04273
407.01174
406.98125
406.95131
406.92194
406.89315
406.86498
406.83744
406.81055
406.78433
406.75879
406.73394
406.7098
406.68636
406.66364
406.64164
406.62036
406.5998
406.57996
406.56085
406.54246
406.52478
406.50781
406.49155
406.476
406.46114
406.44693
406.43356
406.4207
406.40857
406.39711
406.38629
406.37609
406.36653
406.35757
406.34922
406.34147
406.3343
406.3277
406.32165
406.31614
406.31116
406.3067
406.30277
406.29932
406.2964
406.29393
406.29198
406.29047
406.2895
406.28895
406.28897
406.28939
406.29045
406.29189
406.29406
406.2966
406.29998
406.30376
406.30857
406.31379
406.32032
406.32734
406.33601
406.3453
406.35663
406.36888
406.38348
406.39948
406.41846
406.43887
406.51446
406.34856
406.03039
407.23141
410.08222
414.57057
420.65426
428.2978
437.47192
448.14724
460.30178
473.92078
488.99655
505.52461
523.51446
542.97522
563.73264
584.98038
606.37993
627.78984
649.08351
670.14695
690.86828
711.12564
730.81296
749.82247
768.04084
785.34312
801.79413
818.61295
836.54725
855.68751
876.04026
941.66292
312.43787
293.15093
291.72861
290.66816
289.57062
288.46673
287.37094
286.21156
285.16813
284.42844
284.03236
287.04737
265.2523
261.01872
260.81603
250.81039
929.61703
1147.1275
1137.3815
1096.5172
1050.2249
1007.188
975.34747
960.41631
339.01651
310.26932
307.24755
305.48894
305.12122
857.85802
2435.8377
782.22387
2429.9533
791.47826
282.49267
664.391
713.95839
705.96811
272.69251
806.98996
820.61574
857.2944
889.03194
914.61468
932.75925
943.62972
947.79119
945.86586
938.14837
925.22185
907.53116
885.63362
859.98235
832.24855
805.79294
781.11976
758.09948
736.61497
716.54367
697.78975
680.25094
663.84421
648.48708
634.10601
620.62942
607.9927
595.61117
582.55747
568.79651
554.41419
539.49904
524.13718
508.41485
492.41947
476.24817
460.529
465.19694
1017.898
247.81217
903.05353
241.94106
830.43471
735.1961
225.67324
233.12182
657.17029
325.26029
320.78044
316.13788
312.77988
310.71097
310.13924
308.93746
217.63408
221.76104
579.385
566.33935
218.05185
217.1647
217.20274
217.24195
217.28216
217.3204
217.35844
217.39445
217.42895
217.46057
217.64329
226.5535
579.89268
582.93437
582.92953
582.915
582.89967
582.88256
582.864
582.84347
582.82107
582.79391
582.70326
581.24005
552.39611
218.45558
217.73622
217.73322
217.95159
228.45658
579.92
582.43984
582.40049
582.35324
582.3042
582.24877
582.14134
581.16148
563.21334
312.37031
311.51691
311.47933
311.44348
311.40784
311.37144
311.33428
311.29631
311.25761
311.21823
311.17827
311.13779
311.09687
311.05559
311.01402
310.97224
310.93033
310.88835
310.84637
310.80447
310.7627
310.72112
310.67979
310.63876
310.5981
310.55785
310.51805
310.47876
310.44001
310.40183
310.36427
310.32736
310.29113
310.2556
310.22082
310.18679
310.15355
310.12111
310.0895
310.05873
310.02881
309.99976
309.97158
309.94428
309.91785
309.89232
309.86767
309.8439
309.82102
309.79902
309.77789
309.75764
309.73825
309.71973
309.70204
309.68515
309.66931
309.65406
309.63971
309.62617
309.61342
309.60144
309.59022
309.57974
309.57001
309.561
309.5527
309.54509
309.53816
309.53188
309.52626
309.52126
309.51691
309.51314
309.51002
309.50744
309.50551
309.50411
309.50336
309.50312
309.50357
309.50451
309.50621
309.50838
309.51141
309.5149
309.5194
309.52436
309.53056
309.53723
309.54547
309.55426
309.56502
309.57647
309.59036
309.60525
309.62296
309.64221
309.66489
309.68904
309.76053
309.66486
309.43337
310.34646
312.51101
315.9244
320.55343
326.37062
333.35439
341.48137
350.73562
361.1049
372.58408
385.16896
398.86712
413.68477
429.48763
445.65922
461.94725
478.24411
494.45428
510.49123
526.27066
541.70081
556.70169
571.19224
585.08772
598.29644
610.87478
623.74239
637.46118
652.1028
667.60216
724.16348
279.61455
262.34148
261.1574
260.43374
259.69947
258.98283
258.29724
257.55821
256.87792
256.40504
256.16165
259.16964
247.79384
244.54017
244.46233
234.35543
679.38906
871.77608
872.58384
843.93286
810.65519
779.95872
757.07806
747.11662
306.3014
280.47725
277.08894
274.9144
273.99863
651.35561
1848.3064
627.60752
1845.0044
636.56024
261.96498
521.11883
561.68244
552.77291
253.12896
634.53063
641.42547
669.92076
694.68025
714.77968
729.01671
737.58014
740.86068
739.39289
733.37087
723.28661
709.46942
692.37168
672.33924
650.67811
630.00206
610.71968
592.72916
575.94135
560.25842
545.6072
531.90631
519.09158
507.09755
495.86646
485.34063
475.4676
465.79251
455.59496
444.84402
433.6057
421.9491
409.94091
397.64849
385.14039
372.49564
360.28979
364.4861
752.05608
219.94719
666.26377
213.36779
612.94978
539.79723
197.81595
202.91258
482.50612
254.35921
250.71383
247.09338
244.50052
242.9337
242.62146
242.1285
188.46885
191.94331
425.81933
415.30339
188.83114
188.20661
188.25083
188.29499
188.34018
188.3829
188.42527
188.46508
188.50265
188.53416
188.69336
196.00249
426.30564
428.56111
428.561
428.55227
428.54227
428.53016
428.5162
428.49996
428.48146
428.45747
428.36696
427.01817
404.51606
189.32239
188.8029
188.79117
188.96876
197.53177
426.28289
428.13337
428.09596
428.05224
428.00738
427.95701
427.85342
426.92071
412.31218
244.65758
243.99693
243.95177
243.9082
243.86482
243.82062
243.77557
243.72965
243.68295
243.63553
243.58749
243.53892
243.4899
243.44053
243.39088
243.34106
243.29114
243.24121
243.19135
243.14162
243.0921
243.04287
242.99397
242.94549
242.89748
242.85
242.8031
242.75683
242.71123
242.66635
242.62223
242.5789
242.5364
242.49476
242.45402
242.4142
242.37533
242.33742
242.30051
242.26461
242.22972
242.19588
242.16307
242.13132
242.10061
242.07096
242.04236
242.01482
241.98833
241.96288
241.93847
241.91511
241.89276
241.87144
241.85112
241.83173
241.8136
241.79616
241.77979
241.76438
241.7499
241.73633
241.72366
241.71187
241.70096
241.6909
241.6817
241.67329
241.66571
241.65888
241.65284
241.64754
241.643
241.63915
241.63606
241.63363
241.63195
241.63089
241.63062
241.63094
241.63208
241.63378
241.6364
241.63955
241.64373
241.64844
241.65433
241.66076
241.66864
241.67707
241.68732
241.6982
241.71138
241.72533
241.74213
241.76003
241.78124
241.80412
241.83093
241.85928
241.92897
241.88161
241.70868
242.41916
244.10146
246.76004
250.36796
254.90343
260.35033
266.68938
273.90907
281.9988
290.95525
300.7744
311.46264
323.02445
335.35261
347.96483
360.66912
373.38155
386.02829
398.54244
410.85909
422.90724
434.62566
445.95217
456.8223
467.16759
477.03853
487.14435
497.91669
509.41412
521.52842
569.99617
259.16265
244.11966
243.32669
243.05406
242.7732