/*--------------------------------*- C++ -*----------------------------------*\
| =========                 |                                                 |
| \\      /  F ield         | OpenFOAM: The Open Source CFD Toolbox           |
|  \\    /   O peration     | Version:  2.4.0                                 |
|   \\  /    A nd           | Web:      www.OpenFOAM.org                      |
|    \\/     M anipulation  |                                                 |
\*---------------------------------------------------------------------------*/
FoamFile
{
    version     2.0;
    format      ascii;
    class       volVectorField;
    location    "350";
    object      U;
}
// * * * * * * * * * * * * * * * * * * * * * * * * * * * * * * * * * * * * * //

dimensions      [0 1 -1 0 0 0 0];

internalField   nonuniform List<vector> 
78300
(
(0.0053818188 2.2994154e-05 1.3052334e-21)
(0.003950449 1.9810567e-05 -1.2715978e-21)
(0.0067339626 -4.2718868e-05 1.086258e-21)
(0.005280907 -0.00016238317 -2.9721029e-20)
(0.0058621206 -0.00039724943 -8.462441e-21)
(0.0033433628 -0.0003917387 1.6386978e-20)
(0.0021507099 -0.00039001432 9.5769735e-21)
(-0.0006326734 0.00015273277 -3.371974e-20)
(-0.0015773647 0.00051723638 -1.2362421e-20)
(-0.0023399318 0.00098638076 1.3892758e-20)
(-0.001928926 0.00097270741 8.5344446e-21)
(-0.0017028635 0.00098361492 -2.179118e-20)
(-0.0012586484 0.00080395742 3.4037515e-21)
(-0.0011072015 0.00076639624 -1.57158e-20)
(-0.00090404305 0.00066480206 1.1799575e-20)
(-0.00084860617 0.00065497424 -1.6603081e-20)
(-0.00074475156 0.00059601209 -5.1467509e-21)
(-0.0007178571 0.00059113281 2.3315159e-21)
(-0.00065549588 0.00055058256 -8.3451022e-21)
(-0.00062769963 0.00053435288 5.7544693e-21)
(-0.00057979691 0.00049665335 7.1471511e-21)
(-0.0005518482 0.00047282367 -5.6292301e-21)
(-0.00051530031 0.00043859238 -1.9681529e-21)
(-0.00049861245 0.00041967718 8.3880883e-22)
(-0.00048066557 0.00039993051 1.9490722e-21)
(-0.00047381752 0.00039003392 4.3901881e-22)
(-0.0004677814 0.00038118297 5.5857474e-22)
(-0.00047038948 0.0003797561 -1.8136874e-21)
(-0.00047566844 0.00038072242 -1.513264e-21)
(-0.00048861044 0.0003880476 -1.0279152e-21)
(-0.00050569648 0.00039880684 1.1130859e-21)
(-0.00052978816 0.00041523394 2.4085116e-21)
(-0.00055866854 0.00043553599 9.4352092e-22)
(-0.00059369658 0.00046078342 1.3042217e-21)
(-0.00063259897 0.00048921764 -1.4408265e-21)
(-0.00067457693 0.00052030573 9.6387046e-22)
(-0.00071463259 0.00054951517 -1.5372646e-21)
(-0.00075374908 0.00057619622 -4.9020842e-23)
(-0.00079238727 0.00060030184 -2.1764726e-21)
(-0.00082989166 0.00062105072 3.3620097e-22)
(-0.00086603347 0.00063795507 -3.0193938e-24)
(-0.000899739 0.00065002159 -2.6143239e-22)
(-0.00093053654 0.00065676489 -8.3710575e-22)
(-0.00095710095 0.0006570044 -1.4833642e-21)
(-0.00097919847 0.00065060216 3.2046222e-21)
(-0.00099509186 0.00063643041 4.3816329e-21)
(-0.0010063843 0.00061570256 -1.7999215e-21)
(-0.0010119443 0.00058787445 -5.607889e-21)
(-0.0010190042 0.00055776652 5.9907844e-21)
(-0.0010250395 0.00052558881 -5.1315774e-21)
(-0.0010289282 0.0004913325 -1.1807013e-20)
(-0.0010265034 0.00045334943 1.6052854e-21)
(-0.0010215549 0.00041390132 -2.2941096e-21)
(-0.0010060353 0.00037025759 -8.9022245e-21)
(-0.00098986098 0.00032700569 -2.8699088e-21)
(-0.00095725726 0.00027955564 2.4686441e-21)
(-0.00092893416 0.00023521813 1.7718052e-21)
(-0.0008772406 0.00018753467 3.5489298e-21)
(-0.00084542658 0.00014703366 4.7268784e-23)
(-0.00078602191 0.00010493303 -1.6524143e-21)
(-0.00078512924 7.2818296e-05 3.5108699e-24)
(-0.00075889171 3.918117e-05 -5.5840341e-23)
(-0.00091597347 1.0972151e-05 -1.5939692e-22)
(-0.0012248463 3.7588689e-07 5.809242e-26)
(-0.0014328015 3.6951533e-07 -6.9136657e-26)
(-0.0016417607 3.3610436e-07 -3.2001565e-25)
(-0.0018118828 3.5556402e-07 3.5463414e-25)
(-0.0019791742 3.430392e-07 -3.5814643e-25)
(-0.0021197295 3.6038916e-07 2.3063867e-25)
(-0.0022556508 3.5401638e-07 -2.8557623e-25)
(-0.002373161 3.6630265e-07 1.8668826e-25)
(-0.0024858988 3.6497046e-07 3.4035402e-25)
(-0.0025857733 3.750068e-07 -4.2441521e-25)
(-0.0026812325 3.7635043e-07 -1.4899167e-18)
(-0.0027675077 3.8461987e-07 -1.2561728e-18)
(-0.0028498025 3.8726655e-07 4.5556843e-25)
(-0.0029252289 3.9405853e-07 -1.9358182e-25)
(-0.0029968411 3.9720447e-07 -7.12746e-26)
(-0.0030627075 4.0354967e-07 -2.5758706e-26)
(-0.0031251509 4.0175105e-07 3.4646524e-26)
(-0.0031830787 4.0079077e-07 -9.0946928e-26)
(-0.0032378532 4.0206354e-07 3.2779074e-25)
(-0.0032888176 4.0350977e-07 -1.7593965e-25)
(-0.0033367909 4.0297471e-07 -4.5886927e-25)
(-0.0033814129 4.0252827e-07 4.978508e-25)
(-0.0034231766 4.0040756e-07 -7.1782133e-26)
(-0.0034618611 3.9831905e-07 5.934685e-25)
(-0.003497793 3.9482574e-07 -8.152216e-25)
(-0.0035308321 3.9083821e-07 -6.4200587e-25)
(-0.0035612168 3.8499902e-07 9.8345693e-25)
(-0.0035887072 3.7713054e-07 -8.3034571e-25)
(-0.0036137018 3.6772849e-07 6.6261261e-25)
(-0.0036358324 3.6800098e-07 -3.7630024e-25)
(-0.0036568049 3.6937476e-07 -7.9709842e-26)
(-0.0036753722 3.633847e-07 2.7482966e-26)
(-0.0036917322 3.5798539e-07 5.5951326e-25)
(-0.003705336 3.5505192e-07 -4.768567e-26)
(-0.0037168104 3.4250864e-07 8.313565e-25)
(-0.0037260688 3.276691e-07 -4.2186444e-27)
(-0.0037334772 3.1963164e-07 -1.637766e-24)
(-0.0037392814 3.1162489e-07 7.7748203e-25)
(-0.0037437855 3.0422783e-07 -7.4575031e-26)
(-0.0037476391 2.9793285e-07 1.10915e-24)
(-0.0037512243 2.9252835e-07 -2.8001154e-26)
(-0.0037553405 2.8487158e-07 -2.1705699e-24)
(-0.0037587233 2.685495e-07 -1.4953451e-25)
(-0.00375981 2.483309e-07 7.5449171e-26)
(-0.0037518425 2.322193e-07 1.1144996e-24)
(-0.0037415238 2.1751645e-07 -1.1119838e-25)
(-0.0037281322 2.0385558e-07 -1.4041058e-24)
(-0.0037127861 1.9082081e-07 2.5947368e-24)
(-0.0036955135 1.7797636e-07 -2.968027e-24)
(-0.0036765627 1.6510257e-07 2.7951652e-24)
(-0.0036559336 1.5214313e-07 -5.3738226e-25)
(-0.0036337606 1.3915002e-07 3.2806537e-25)
(-0.0036100563 1.2618397e-07 -1.3879062e-24)
(-0.0035849171 1.1312846e-07 7.8648649e-25)
(-0.0035583684 1.0016006e-07 2.1202403e-25)
(-0.0035304895 8.6918669e-08 -1.5284408e-25)
(-0.0035013152 7.4175033e-08 -1.497033e-25)
(-0.0034709159 6.1159506e-08 3.175697e-17)
(-0.0034393312 4.8620869e-08 3.2671402e-17)
(-0.003406624 3.5735643e-08 1.9131612e-24)
(-0.003372838 2.3338687e-08 -1.5551026e-25)
(-0.0033380361 1.0773919e-08 -1.7918959e-25)
(-0.0033022644 -1.3535292e-09 -1.2997541e-25)
(-0.0032655811 -1.3607778e-08 -1.0779714e-26)
(-0.0032280303 -2.5432609e-08 -4.386281e-25)
(-0.0031896666 -3.7198004e-08 -2.0085809e-25)
(-0.0031505356 -4.8849292e-08 6.997038e-25)
(-0.0031106898 -6.0103152e-08 3.8116352e-26)
(-0.0030701738 -7.1493205e-08 3.8262819e-25)
(-0.0030290376 -8.2379722e-08 -6.337786e-25)
(-0.0029873276 -9.3383224e-08 8.8642106e-26)
(-0.0029450923 -1.0366076e-07 2.0533798e-26)
(-0.0029023735 -1.1433556e-07 4.0143131e-26)
(-0.0028592119 -1.2427703e-07 3.8817775e-27)
(-0.0028156474 -1.3455978e-07 2.5720009e-25)
(-0.0027717205 -1.4392193e-07 -1.1394114e-25)
(-0.0027274721 -1.5375436e-07 -6.1451357e-25)
(-0.002682938 -1.626527e-07 1.1805749e-24)
(-0.0026381589 -1.7183795e-07 -1.7084882e-24)
(-0.0025931706 -1.8028791e-07 2.9304395e-26)
(-0.002548014 -1.8860427e-07 9.1061211e-25)
(-0.0025027224 -1.9668567e-07 -2.5834105e-25)
(-0.0024573349 -2.0431075e-07 6.1836423e-25)
(-0.0024118836 -2.1203124e-07 -2.6076419e-25)
(-0.0023664049 -2.1910674e-07 -1.6685178e-26)
(-0.0023209277 -2.2632746e-07 -2.9558307e-25)
(-0.0022754846 -2.3294494e-07 -3.0364502e-25)
(-0.0022300999 -2.3979057e-07 -2.8777589e-25)
(-0.0021848063 -2.4610477e-07 1.0940602e-24)
(-0.0021396246 -2.5231669e-07 7.1207325e-25)
(-0.0020945878 -2.5826596e-07 1.1693265e-24)
(-0.0020497116 -2.6402169e-07 -4.6370071e-25)
(-0.0020050293 -2.6942386e-07 -1.3116148e-24)
(-0.0019605513 -2.7477068e-07 -3.1760566e-24)
(-0.0019163139 -2.7975218e-07 6.2635132e-17)
(-0.0018723211 -2.8478707e-07 2.9995416e-20)
(-0.0018286109 -2.8930497e-07 -6.405014e-17)
(-0.0017851801 -2.9400373e-07 -4.8810193e-24)
(-0.0017420676 -2.9804424e-07 7.1333075e-25)
(-0.0016992705 -3.0222491e-07 -8.5112645e-24)
(-0.0016568304 -3.0590492e-07 8.8075844e-24)
(-0.0016147341 -3.0897977e-07 8.1591064e-25)
(-0.0015730482 -3.1169446e-07 -8.026866e-24)
(-0.0015317427 -3.150046e-07 4.4519445e-24)
(-0.0014908846 -3.1775146e-07 -4.9018743e-24)
(-0.0014504149 -3.2118481e-07 7.2294213e-24)
(-0.0014104242 -3.2355269e-07 -1.850209e-24)
(-0.0013708354 -3.2634273e-07 -3.6303575e-24)
(-0.0013317761 -3.2827533e-07 1.1664726e-24)
(-0.0012931304 -3.3093465e-07 4.7095049e-24)
(-0.0012550685 -3.3313291e-07 -5.4630617e-24)
(-0.0012174138 -3.3580159e-07 4.7780594e-24)
(-0.0011803953 -3.3809196e-07 -5.2180961e-24)
(-0.0011437605 -3.4031751e-07 2.6772856e-24)
(-0.0011078268 -3.422949e-07 3.0576209e-24)
(-0.001072251 -3.4403309e-07 4.9596646e-24)
(-0.0010374612 -3.4566803e-07 -5.6803041e-24)
(-0.0010029839 -3.4706702e-07 -3.9072076e-24)
(-0.00096940084 -3.4815973e-07 5.0293709e-24)
(-0.00093606136 -3.4894785e-07 -1.0707792e-23)
(-0.00090376158 -3.4906549e-07 9.9676582e-24)
(-0.00087161154 -3.49258e-07 -5.9114648e-24)
(-0.00084070021 -3.4831397e-07 5.1499213e-24)
(-0.00080981609 -3.4796462e-07 -5.9899092e-24)
(-0.00078042865 -3.4577343e-07 -4.1251009e-24)
(-0.0007509072 -3.4515705e-07 3.2670366e-24)
(-0.00072323199 -3.4185528e-07 -4.1765333e-24)
(-0.00069521741 -3.4147049e-07 1.0757673e-23)
(-0.00066951505 -3.3778959e-07 -6.5380853e-24)
(-0.00064318865 -3.3830549e-07 5.7271933e-24)
(-0.00061978542 -3.3360542e-07 -9.8105694e-24)
(-0.00059539399 -3.3398688e-07 9.1874329e-25)
(-0.00057475569 -3.2729959e-07 3.3999895e-24)
(-0.00055266745 -3.2730751e-07 3.8164259e-24)
(-0.00053544674 -3.1791918e-07 -1.45547e-23)
(-0.00051621515 -3.1805038e-07 8.4930005e-17)
(-0.00050332062 -3.0606899e-07 8.5436372e-17)
(-0.00048773909 -3.0648112e-07 -4.3424291e-24)
(-0.00048038151 -2.9053195e-07 -6.4627342e-24)
(-0.00046959326 -2.9074868e-07 5.638759e-24)
(-0.00046932444 -2.7010944e-07 1.025323e-24)
(-0.00046488342 -2.7096386e-07 -1.8657172e-24)
(-0.00047337203 -2.471126e-07 -8.7618488e-17)
(-0.00047545715 -2.5686929e-07 -8.8126873e-17)
(-0.00048910949 -5.824742e-06 -1.5781057e-20)
(-0.00049977594 -2.5738823e-05 1.6374729e-19)
(-0.00050369039 -4.6383986e-05 7.4290014e-20)
(-0.00051051846 -6.7617203e-05 -4.8168791e-19)
(-0.00050300533 -8.6688794e-05 -8.0183133e-20)
(-0.00049769188 -0.00010544335 -5.3671917e-19)
(-0.00047930122 -0.00012020178 3.5889992e-20)
(-0.00046158878 -0.00013350431 -5.6008934e-21)
(-0.00043272969 -0.0001414765 1.9898329e-19)
(-0.00040292009 -0.00014667491 -1.5644757e-19)
(-0.00036355254 -0.0001454953 5.0995347e-19)
(-0.00032172161 -0.00014011671 -3.4749183e-19)
(-0.00027121606 -0.00012733415 -9.445781e-20)
(-0.00021666855 -0.00010873722 -1.7358019e-19)
(-0.0001532795 -8.1352973e-05 9.8653482e-19)
(-8.3616633e-05 -4.5872844e-05 2.1601481e-19)
(-2.469736e-06 1.2864132e-06 -8.429926e-19)
(8.5763577e-05 5.7663978e-05 -9.2551328e-19)
(0.00018451944 0.00012534647 -1.4796893e-19)
(0.00029084226 0.00020221993 7.1321613e-20)
(0.00040746812 0.00028987527 -9.9557622e-19)
(0.00053210062 0.00038631443 -6.6503779e-20)
(0.00066692777 0.00049264654 -1.8100622e-19)
(0.00080965923 0.00060656548 -1.1866038e-18)
(0.00096174894 0.00072848648 1.8013702e-19)
(0.0011202633 0.0008553711 9.7492827e-19)
(0.0012853799 0.00098640267 7.0692991e-19)
(0.0014507328 0.0011159352 -2.64768e-19)
(0.0016092915 0.0012404825 -1.311373e-19)
(0.0017640119 0.0013640027 -1.2161143e-19)
(0.001916779 0.0014882756 2.4816442e-19)
(0.0020653682 0.0016118339 8.7197235e-19)
(0.0022144342 0.0017385614 -9.4759624e-19)
(0.0023386654 0.0018485529 2.5398736e-19)
(0.0024708145 0.0019681295 2.6325149e-20)
(0.0026166438 0.0021024718 2.3943468e-19)
(0.0027799023 0.0022547457 1.4167138e-19)
(0.0029647336 0.0024291949 -6.6410915e-20)
(0.0031697186 0.0026254189 3.3468849e-19)
(0.0034097138 0.0028567927 -4.0018833e-20)
(0.0036950859 0.0031307395 -6.9778678e-19)
(0.0040760718 0.0034759691 -1.6679837e-20)
(0.0045025278 0.0038387257 -4.5278807e-19)
(0.0050220473 0.0042538684 4.2079278e-19)
(0.0055910679 0.0046728853 3.459187e-20)
(0.0062956802 0.005156014 5.1164449e-20)
(0.0070670095 0.0056259747 -1.1850378e-19)
(0.00805752 0.0061831741 7.1403603e-20)
(0.009150025 0.0066953412 4.7114841e-20)
(0.010614904 0.0073110823 -1.7398583e-20)
(0.012199143 0.0077691228 1.3112178e-19)
(0.014233585 0.0081981247 -9.5864939e-20)
(0.016104131 0.0081229167 -3.5266782e-19)
(0.018039127 0.0076174355 -4.2457316e-19)
(0.018246894 0.006076558 -8.3614493e-20)
(0.017342664 0.0043518197 1.2655897e-19)
(0.014869848 0.002657471 -1.5881149e-19)
(0.012667094 0.0014917207 -9.7565959e-20)
(0.0093044643 0.00063730912 -2.071918e-20)
(0.007793406 0.00024461339 -3.0792461e-20)
(0.0047917499 3.406481e-05 -1.8674022e-20)
(0.0050743606 -2.7848945e-05 -1.0723746e-20)
(0.0024499021 -1.116924e-05 -1.8345226e-21)
(0.016291821 6.0428766e-05 1.4365153e-21)
(0.012499525 5.1398761e-05 3.6609316e-21)
(0.020374425 -0.00013642956 -3.9957504e-21)
(0.016168574 -0.0004912696 3.4921722e-20)
(0.017800696 -0.0011898661 5.0926951e-22)
(0.010425396 -0.0011862043 6.0357807e-20)
(0.0068213285 -0.001186314 -2.5202694e-20)
(-0.0014978163 0.00041645645 4.7844311e-20)
(-0.0044958666 0.001519748 3.7390917e-20)
(-0.0068995979 0.0029388584 -3.2859658e-20)
(-0.0057509642 0.0029159273 -1.0254303e-20)
(-0.0050983635 0.0029544427 3.3007295e-21)
(-0.0037854189 0.0024234751 7.7035901e-20)
(-0.0033311984 0.0023107301 1.1818791e-20)
(-0.002725256 0.002008115 -3.2137446e-20)
(-0.0025567888 0.0019775474 1.4781679e-20)
(-0.0022464615 0.0018015799 -8.3409539e-21)
(-0.0021642175 0.0017860482 -3.1752417e-21)
(-0.0019779541 0.001664775 -8.7032575e-21)
(-0.0018940304 0.0016155021 2.3945039e-21)
(-0.0017510549 0.0015024994 -3.3000563e-21)
(-0.001667298 0.0014305993 2.7281763e-21)
(-0.0015583713 0.0013279178 3.1747769e-21)
(-0.0015084458 0.0012708502 6.6970474e-21)
(-0.0014551993 0.0012116179 -1.7632199e-21)
(-0.0014350554 0.0011818745 -2.3017526e-21)
(-0.0014176061 0.0011555033 -3.1627246e-21)
(-0.0014259814 0.0011514026 1.5297444e-21)
(-0.0014425412 0.0011546513 6.6486238e-22)
(-0.001482012 0.001177 3.4003258e-21)
(-0.0015340021 0.0012097722 -5.5977795e-21)
(-0.0016069201 0.0012595725 -3.5453291e-21)
(-0.0016941933 0.0013210645 -6.8336823e-22)
(-0.0017997584 0.0013973767 -1.3925144e-21)
(-0.0019168217 0.0014832424 -4.1483817e-23)
(-0.0020429825 0.0015769982 4.6054326e-21)
(-0.00216346 0.0016651373 3.6412261e-21)
(-0.0022810777 0.0017456341 1.4835641e-22)
(-0.002397227 0.0018183178 2.1439978e-21)
(-0.0025099831 0.0018808288 1.68031e-22)
(-0.002618565 0.0019317151 6.217507e-25)
(-0.0027199095 0.001968038 -1.4699871e-21)
(-0.0028126843 0.0019882233 -5.3370837e-22)
(-0.0028927969 0.0019888426 -5.9656568e-22)
(-0.0029596751 0.0019694327 1.6695227e-21)
(-0.0030081906 0.0019266708 -1.1189827e-20)
(-0.0030430924 0.0018641358 4.0038569e-21)
(-0.0030610825 0.0017803217 -3.2558496e-21)
(-0.0030836669 0.0016895721 -3.6444902e-22)
(-0.0031033429 0.0015925359 -3.331113e-21)
(-0.0031166863 0.0014891273 2.366408e-21)
(-0.0031114588 0.0013745486 -1.2706027e-20)
(-0.0030987085 0.0012553963 -8.9513944e-22)
(-0.0030547549 0.0011237117 2.8765656e-21)
(-0.003008936 0.00099296622 -7.744363e-22)
(-0.0029149491 0.00084980863 7.5645664e-21)
(-0.0028336091 0.00071562499 -6.8001461e-21)
(-0.0026836239 0.00057166817 4.6896965e-21)
(-0.0025923605 0.00044877608 -1.0209761e-21)
(-0.0024214584 0.00032168313 5.4928599e-23)
(-0.0024243046 0.00022401998 1.3868459e-24)
(-0.0023578742 0.00012311472 -1.2111218e-21)
(-0.0028329676 3.9465151e-05 2.4301377e-22)
(-0.003751938 7.1694675e-06 -5.3107678e-25)
(-0.0043754586 5.9541573e-06 -8.7317299e-27)
(-0.0050002317 5.3192764e-06 -1.7746826e-25)
(-0.0055096935 4.8255259e-06 5.9279095e-25)
(-0.0060091024 4.3493396e-06 -3.6466307e-25)
(-0.0064294527 3.9662275e-06 1.2606687e-25)
(-0.0068351464 3.6060728e-06 1.2056163e-25)
(-0.007186303 3.3169307e-06 1.0652706e-25)
(-0.0075226786 3.0476285e-06 -4.0914184e-25)
(-0.0078209292 2.8283924e-06 1.5578712e-25)
(-0.0081056579 2.6248751e-06 7.1784335e-26)
(-0.0083631291 2.4553358e-06 3.8410937e-26)
(-0.0086084881 2.2961181e-06 -3.6346524e-25)
(-0.008833425 2.1564368e-06 1.8807177e-25)
(-0.0090468141 2.0195352e-06 -4.1935669e-26)
(-0.0092431712 1.8934708e-06 1.0827535e-26)
(-0.0094292569 1.7758608e-06 1.1669336e-25)
(-0.0096016894 1.6730934e-06 1.5759618e-26)
(-0.0097645612 1.5740336e-06 -3.6286026e-26)
(-0.0099160773 1.4813995e-06 -9.3448741e-26)
(-0.010058594 1.3913991e-06 -1.5536146e-25)
(-0.010191081 1.3050941e-06 -2.2178387e-25)
(-0.010314974 1.2203813e-06 -2.9250356e-25)
(-0.010429642 1.1381571e-06 6.7089582e-25)
(-0.010536037 1.0572448e-06 1.4618836e-25)
(-0.01063377 9.7812007e-07 1.2014117e-24)
(-0.010723546 8.9801007e-07 -1.9135824e-24)
(-0.010804713 8.1830089e-07 1.4048295e-24)
(-0.010878216 7.4719986e-07 -3.7378134e-25)
(-0.010942797 6.9318583e-07 -1.4705336e-24)
(-0.011004251 6.3872949e-07 -6.3635437e-25)
(-0.011058653 5.7374541e-07 6.0948309e-25)
(-0.011106372 5.0295646e-07 3.882247e-25)
(-0.011145973 4.2751997e-07 1.1777187e-24)
(-0.011179323 3.6145566e-07 9.6300531e-25)
(-0.011205755 3.0496993e-07 -2.8674601e-24)
(-0.011226585 2.5396795e-07 9.6281587e-25)
(-0.011242684 2.1186364e-07 6.2456984e-25)
(-0.01125492 1.8249555e-07 1.6826127e-24)
(-0.011265211 1.6803639e-07 -3.6341464e-24)
(-0.01127474 1.7005214e-07 1.764481e-24)
(-0.01128595 1.6564713e-07 8.0478327e-25)
(-0.011295317 1.1998697e-07 1.4868311e-24)
(-0.011298061 -4.1215463e-08 -3.8103713e-24)
(-0.011273062 -2.055321e-07 8.550003e-25)
(-0.011240822 -2.8710548e-07 2.4626952e-25)
(-0.011199458 -3.5986736e-07 3.1419468e-24)
(-0.011152246 -4.1725753e-07 -2.6856945e-24)
(-0.011099288 -4.7013524e-07 1.0886696e-24)
(-0.011041314 -5.2021214e-07 -1.0259968e-26)
(-0.010978334 -5.6788035e-07 -3.4773241e-24)
(-0.010910742 -6.1385177e-07 6.6414129e-25)
(-0.01083858 -6.5809684e-07 7.7809991e-25)
(-0.010762135 -7.0082989e-07 4.8853487e-25)
(-0.010681484 -7.4184928e-07 1.3231543e-24)
(-0.010596864 -7.8142498e-07 1.2221688e-25)
(-0.01050838 -8.1937113e-07 -7.3416392e-25)
(-0.01041624 -8.5599605e-07 4.250868e-25)
(-0.010320565 -8.9094834e-07 -6.157936e-25)
(-0.010221544 -9.2462462e-07 2.6387793e-25)
(-0.01011931 -9.5670304e-07 -4.1047583e-25)
(-0.010014046 -9.8717561e-07 9.1648194e-25)
(-0.0099058895 -1.0160222e-06 -1.7060476e-24)
(-0.0097950135 -1.0434785e-06 -3.7404769e-25)
(-0.0096815529 -1.069438e-06 6.7327267e-25)
(-0.0095656712 -1.0940974e-06 1.2822398e-24)
(-0.0094475055 -1.1172783e-06 -1.7068468e-25)
(-0.0093272117 -1.1391885e-06 -3.7454401e-25)
(-0.0092049258 -1.1594616e-06 -7.0296501e-25)
(-0.0090807966 -1.1785967e-06 6.482789e-25)
(-0.0089549615 -1.196177e-06 -1.5772814e-25)
(-0.0088275605 -1.2126584e-06 -1.2697093e-26)
(-0.0086987216 -1.2276866e-06 -8.0422739e-26)
(-0.0085685701 -1.2418289e-06 1.0843524e-26)
(-0.0084372287 -1.254705e-06 3.8226723e-25)
(-0.0083048172 -1.2664774e-06 -6.9463194e-25)
(-0.0081714574 -1.2768913e-06 -1.1454921e-25)
(-0.0080372594 -1.2865135e-06 -4.7749962e-25)
(-0.007902343 -1.2947758e-06 1.4071082e-24)
(-0.0077668146 -1.3020484e-06 1.1892917e-24)
(-0.0076307919 -1.3080775e-06 -2.1860109e-25)
(-0.0074943764 -1.3131541e-06 -2.983442e-24)
(-0.0073576803 -1.3171046e-06 -1.7749623e-24)
(-0.007220801 -1.3201397e-06 2.6039087e-24)
(-0.007083844 -1.3222313e-06 4.0272499e-24)
(-0.0069468971 -1.3236295e-06 -6.8105784e-24)
(-0.006810059 -1.3240208e-06 1.6828648e-24)
(-0.0066734043 -1.3237325e-06 -1.5167801e-25)
(-0.0065370314 -1.3224762e-06 3.3671659e-24)
(-0.0064010016 -1.3206466e-06 -2.469683e-24)
(-0.0062654136 -1.317934e-06 1.215595e-24)
(-0.0061303144 -1.3146677e-06 1.7063793e-24)
(-0.0059958042 -1.3107302e-06 3.7465732e-24)
(-0.0058619137 -1.3061723e-06 -9.3912053e-24)
(-0.0057287507 -1.3009452e-06 3.7674082e-24)
(-0.0055963278 -1.2952782e-06 -1.4047438e-25)
(-0.0054647589 -1.28896e-06 -5.7377374e-24)
(-0.0053340377 -1.2821705e-06 -2.0518126e-25)
(-0.0052042821 -1.2746313e-06 1.0314726e-23)
(-0.0050754886 -1.2663694e-06 3.1222579e-24)
(-0.0049477833 -1.2572875e-06 -7.3476179e-24)
(-0.0048211204 -1.2476925e-06 9.227816e-24)
(-0.0046956827 -1.237638e-06 1.2489378e-24)
(-0.0045713825 -1.2273545e-06 -8.2052078e-24)
(-0.0044484204 -1.2170358e-06 1.4556407e-23)
(-0.004326638 -1.2063631e-06 -1.0734836e-23)
(-0.0042063007 -1.1947997e-06 1.4265941e-24)
(-0.0040871808 -1.1831338e-06 1.991669e-24)
(-0.0039696489 -1.1707991e-06 -1.0203688e-23)
(-0.0038533617 -1.1586222e-06 1.1380663e-23)
(-0.0037388192 -1.1457911e-06 2.2317997e-24)
(-0.0036255064 -1.1336233e-06 -5.8040308e-24)
(-0.0035141018 -1.1203876e-06 -5.8931204e-24)
(-0.0034038692 -1.1077458e-06 -1.1404277e-23)
(-0.003295741 -1.0933495e-06 2.0753094e-23)
(-0.0031887097 -1.0800108e-06 1.4460193e-23)
(-0.0030840342 -1.0645536e-06 -3.1328926e-23)
(-0.0029803265 -1.0504399e-06 3.1222845e-23)
(-0.0028792996 -1.0333433e-06 -9.3039045e-24)
(-0.002779044 -1.0179807e-06 -1.4492835e-23)
(-0.0026819022 -9.9884286e-07 -1.1955453e-23)
(-0.002585258 -9.8194499e-07 -4.7403545e-25)
(-0.0024923156 -9.6034208e-07 2.7067355e-23)
(-0.0023995099 -9.4192015e-07 -2.0054951e-23)
(-0.0023111687 -9.1751144e-07 1.2621195e-23)
(-0.0022224929 -8.9716494e-07 -2.0153694e-23)
(-0.0021393139 -8.6922725e-07 2.2437238e-23)
(-0.0020551878 -8.4719881e-07 -1.2400957e-23)
(-0.0019779344 -8.1552019e-07 7.4022888e-24)
(-0.0018989074 -7.9143444e-07 2.4884775e-24)
(-0.0018285809 -7.5360759e-07 -1.2615806e-23)
(-0.0017554199 -7.2533174e-07 1.3125116e-23)
(-0.0016934298 -6.7849724e-07 -1.8319529e-25)
(-0.0016272563 -6.4404415e-07 5.1038518e-24)
(-0.0015755685 -5.8428559e-07 -2.3857981e-23)
(-0.0015180481 -5.4087926e-07 1.6130228e-23)
(-0.001479384 -4.6370721e-07 5.164995e-24)
(-0.0014329121 -4.084791e-07 -2.4208194e-23)
(-0.001410919 -3.0701138e-07 2.3852559e-23)
(-0.0013789405 -2.3597284e-07 1.6526999e-23)
(-0.0013782653 -1.0275847e-07 -2.4462214e-23)
(-0.0013654363 -1.6349121e-08 1.9279495e-23)
(-0.0013910712 1.3143431e-07 -2.7351475e-23)
(-0.0013981365 1.5954711e-07 -2.9053866e-23)
(-0.0014398989 -1.6275146e-05 4.1213689e-20)
(-0.0014721899 -7.5596679e-05 1.7942413e-20)
(-0.0014836202 -0.00013701873 8.6759257e-21)
(-0.0015032089 -0.00020021695 5.7574678e-19)
(-0.0014800361 -0.0002569305 2.8760451e-19)
(-0.001463066 -0.0003125765 1.323347e-18)
(-0.0014071105 -0.00035624465 1.1696323e-18)
(-0.0013529176 -0.00039540641 -3.0407103e-19)
(-0.0012654548 -0.00041858334 -3.7829622e-19)
(-0.0011749466 -0.00043330575 8.353107e-20)
(-0.0010558505 -0.00042888618 -2.7038093e-19)
(-0.00092921763 -0.00041174744 2.1687043e-19)
(-0.00077662695 -0.00037236993 -2.4145849e-19)
(-0.00061186047 -0.00031543592 -1.0728111e-19)
(-0.00042069353 -0.00023209179 -7.8502276e-19)
(-0.00021067961 -0.00012436092 1.8389879e-18)
(3.3423556e-05 1.8423857e-05 6.9821446e-19)
(0.00029861186 0.00018886532 4.5351502e-20)
(0.00059504579 0.00039322471 -4.7982034e-19)
(0.00091397864 0.00062514408 -5.637772e-19)
(0.0012634998 0.00088938303 1.1983656e-18)
(0.0016368139 0.0011799566 -2.1698387e-18)
(0.0020403984 0.001500144 4.8382142e-19)
(0.0024674581 0.0018430759 -2.3992583e-19)
(0.0029222889 0.0022099206 3.9300084e-19)
(0.0033962852 0.0025916424 -8.9543373e-19)
(0.0038898511 0.0029856961 -2.5458563e-19)
(0.0043841668 0.0033753292 -5.7689231e-19)
(0.0048587266 0.0037503376 3.6695459e-19)
(0.0053221505 0.0041224321 -7.9539054e-19)
(0.0057797445 0.0044968423 -4.3508515e-19)
(0.0062251073 0.0048693728 -7.7972294e-19)
(0.0066705119 0.0052508798 3.8896255e-20)
(0.0070380459 0.0055804128 9.3733539e-19)
(0.0074318587 0.0059399105 -3.6148947e-19)
(0.0078679938 0.0063443685 4.2178379e-19)
(0.0083559751 0.0068027777 -2.6882109e-19)
(0.0089077292 0.007327629 -1.3109491e-18)
(0.0095193273 0.0079179873 2.4384547e-19)
(0.010234526 0.0086134764 1.4759394e-19)
(0.01108438 0.0094365892 1.240522e-18)
(0.012215064 0.010470683 -2.1613333e-19)
(0.013481795 0.011558291 2.2198755e-19)
(0.015023497 0.012800605 -3.7284741e-20)
(0.016714265 0.014055988 -1.3242497e-19)
(0.018803175 0.015498953 -3.5743979e-19)
(0.021093529 0.016904743 4.9872825e-20)
(0.024027521 0.01856407 -6.4551188e-20)
(0.027269906 0.020092231 7.3409533e-20)
(0.031608157 0.021918573 6.10623e-21)
(0.036314186 0.023281114 -1.5968712e-19)
(0.04232566 0.024537135 2.455455e-19)
(0.047870499 0.024302799 9.4779658e-20)
(0.053586092 0.022773044 5.1276977e-19)
(0.054343047 0.018212194 -2.6422712e-19)
(0.05186047 0.013091132 2.6591313e-19)
(0.044779175 0.0080518296 -1.2421732e-19)
(0.038328667 0.0045504388 -3.6071716e-19)
(0.028477901 0.0019790672 -9.1712193e-20)
(0.023904065 0.00077710634 8.6502764e-21)
(0.015038947 0.00012502635 2.9657496e-20)
(0.015695542 -7.0568994e-05 5.6055108e-21)
(0.0081808793 -3.5685396e-05 6.6611105e-21)
(0.02761407 8.5865489e-05 1.3451019e-21)
(0.021777252 7.1976076e-05 -1.2540538e-21)
(0.034365135 -0.00024179322 -4.2779815e-22)
(0.027609515 -0.00083028331 -1.7578092e-20)
(0.030125663 -0.001987518 5.1749192e-20)
(0.018063426 -0.0020133394 -4.0255812e-20)
(0.011943637 -0.0020231776 2.5012526e-20)
(-0.0019356481 0.0006042763 -1.0171622e-19)
(-0.0072179423 0.0024729205 5.1656666e-20)
(-0.011408293 0.0048691945 1.3427517e-21)
(-0.0096060682 0.0048674509 1.4411509e-20)
(-0.0085426628 0.0049424907 -1.7833226e-20)
(-0.0063687961 0.004071188 -7.6592677e-20)
(-0.0056044753 0.0038827557 2.3095917e-20)
(-0.0045930804 0.0033816898 3.4494677e-20)
(-0.0043064424 0.0033285247 -3.9501476e-21)
(-0.0037877755 0.0030363959 3.4632525e-21)
(-0.0036471814 0.0030086859 6.7704168e-21)
(-0.0033358677 0.0028067526 1.8607292e-20)
(-0.0031939997 0.0027232459 -9.8167498e-21)
(-0.0029549995 0.0025345975 -9.3545812e-21)
(-0.0028142124 0.0024136594 -1.556289e-21)
(-0.0026322106 0.0022421709 3.6854271e-21)
(-0.0025483016 0.0021462899 -7.4096683e-21)
(-0.0024595837 0.0020474296 1.9268388e-22)
(-0.002426092 0.0019977199 -2.7443267e-21)
(-0.002397562 0.0019540925 2.3945478e-21)
(-0.0024121863 0.0019476643 1.451286e-21)
(-0.0024408303 0.001953849 7.366079e-23)
(-0.0025078 0.0019919894 1.6147619e-21)
(-0.0025959364 0.002047786 -6.3470173e-22)
(-0.0027190755 0.0021320743 -5.9367828e-22)
(-0.0028663287 0.0022360308 -2.4112675e-21)
(-0.0030440954 0.0023647121 9.9943634e-23)
(-0.0032410482 0.0025093316 -5.6195222e-21)
(-0.0034531078 0.0026669575 -4.1443011e-21)
(-0.0036557721 0.0028151939 -8.3109857e-22)
(-0.0038535776 0.0029505297 2.208621e-22)
(-0.0040488576 0.0030726228 3.006247e-22)
(-0.0042384237 0.0031775491 -7.480079e-22)
(-0.0044209165 0.0032628384 5.0357253e-24)
(-0.0045913523 0.0033235945 2.3375336e-21)
(-0.0047474739 0.00335719 2.3663912e-21)
(-0.0048824572 0.0033579166 1.3667315e-23)
(-0.0049953929 0.003324969 -1.3424651e-20)
(-0.0050778372 0.0032529176 5.6652185e-21)
(-0.0051376214 0.0031476349 7.7825717e-21)
(-0.0051694361 0.0030068475 7.1879012e-21)
(-0.0052090296 0.0028543466 1.1997035e-21)
(-0.0052440279 0.0026912221 -3.2880647e-21)
(-0.0052685225 0.0025171876 1.2436351e-20)
(-0.0052624795 0.0023245268 3.3483998e-21)
(-0.0052438171 0.0021238686 1.5623572e-21)
(-0.0051737387 0.0019023853 1.4130903e-20)
(-0.0051004887 0.0016820157 -8.2566069e-21)
(-0.0049483873 0.0014412386 -9.0400519e-21)
(-0.0048168869 0.0012147383 2.4764786e-21)
(-0.0045729634 0.00097236795 -2.7482225e-21)
(-0.0044254633 0.00076424209 2.0883584e-21)
(-0.0041499763 0.00055010522 2.726029e-21)
(-0.0041617615 0.00038411184 1.6880704e-24)
(-0.004069139 0.00021486745 7.4836034e-23)
(-0.0048713728 7.6131864e-05 -3.502891e-22)
(-0.0064000705 2.1487481e-05 5.165402e-25)
(-0.0074463097 1.7659255e-05 -3.6296671e-27)
(-0.0084904174 1.5870359e-05 -1.4193647e-25)
(-0.0093437559 1.4255314e-05 3.8815791e-25)
(-0.010177396 1.2884626e-05 -1.6809776e-25)
(-0.010880612 1.1656786e-05 -1.818895e-25)
(-0.011557766 1.0611129e-05 3.8514662e-25)
(-0.012144775 9.6911879e-06 -1.9345615e-25)
(-0.012706096 8.9014602e-06 -1.8026868e-25)
(-0.01320434 8.2087819e-06 -1.5499826e-25)
(-0.013679367 7.6065309e-06 1.0031347e-25)
(-0.014109226 7.0735651e-06 2.6351489e-26)
(-0.014518442 6.5981168e-06 3.690876e-26)
(-0.014893752 6.1617868e-06 -9.6789033e-26)
(-0.015249507 5.7507337e-06 -1.8526202e-26)
(-0.015577002 5.3716891e-06 8.361987e-27)
(-0.015887256 5.0236309e-06 -7.7428435e-26)
(-0.016174468 4.7014316e-06 5.8945822e-26)
(-0.016445527 4.4013254e-06 3.8850136e-25)
(-0.016697648 4.1180086e-06 -2.7192947e-25)
(-0.01693462 3.8468033e-06 -1.4521621e-25)
(-0.017154815 3.5857102e-06 7.7037559e-25)
(-0.017360558 3.3320022e-06 -5.8069577e-25)
(-0.017550854 3.085764e-06 4.0452159e-25)
(-0.01772725 2.845136e-06 -2.7142876e-25)
(-0.017889141 2.6103586e-06 -1.4993888e-25)
(-0.018037687 2.3747399e-06 5.6359626e-25)
(-0.018171886 2.140063e-06 6.8301762e-25)
(-0.018293045 1.9111976e-06 -2.5145449e-24)
(-0.018398703 1.7460001e-06 1.950801e-24)
(-0.018499687 1.5998323e-06 -5.448758e-25)
(-0.018589035 1.4104939e-06 -1.8750498e-24)
(-0.018667141 1.2045351e-06 8.0367006e-25)
(-0.018731803 9.9976167e-07 2.7537024e-24)
(-0.018786241 8.1028546e-07 -5.0556443e-25)
(-0.018828623 6.3456313e-07 -7.8937828e-25)
(-0.018861602 4.8663703e-07 -6.8745592e-25)
(-0.018886725 3.6645611e-07 -7.7556357e-25)
(-0.018905414 2.8418509e-07 1.6069464e-24)
(-0.018920843 2.465122e-07 -8.1990131e-25)
(-0.01893506 2.588872e-07 -1.177808e-24)
(-0.018952183 2.5614359e-07 1.8718656e-24)
(-0.018966769 1.3127883e-07 -9.7166496e-25)
(-0.018970634 -3.4711623e-07 -1.0664531e-24)
(-0.018927135 -8.321331e-07 1.0494929e-24)
(-0.018871199 -1.0655692e-06 1.8169583e-24)
(-0.018800142 -1.2743442e-06 2.3127083e-25)
(-0.018719296 -1.4373626e-06 -1.5391729e-24)
(-0.018628872 -1.5872327e-06 -1.2877253e-24)
(-0.018530063 -1.7274675e-06 4.2334875e-24)
(-0.018422901 -1.8614103e-06 -6.6988469e-24)
(-0.018308034 -1.9898443e-06 5.688523e-24)
(-0.018185541 -2.113023e-06 -4.858979e-24)
(-0.018055893 -2.2315635e-06 1.9179733e-24)
(-0.017919229 -2.3449685e-06 9.0686655e-25)
(-0.017775937 -2.4543462e-06 2.3276278e-25)
(-0.0176262 -2.5586362e-06 -1.6843581e-24)
(-0.01747036 -2.658771e-06 1.0436495e-24)
(-0.017308624 -2.7538916e-06 -9.88697e-25)