/*--------------------------------*- C++ -*----------------------------------*\
  =========                 |
  \\      /  F ield         | OpenFOAM: The Open Source CFD Toolbox
   \\    /   O peration     | Website:  https://openfoam.org
    \\  /    A nd           | Version:  7
     \\/     M anipulation  |
\*---------------------------------------------------------------------------*/
FoamFile
{
    version     2.0;
    format      ascii;
    class       volScalarField;
    location    "25000";
    object      omega_0;
}
// * * * * * * * * * * * * * * * * * * * * * * * * * * * * * * * * * * * * * //

dimensions      [0 0 -1 0 0 0 0];

internalField   nonuniform List<scalar> 
2444
(
100.058
100.056
100.054
100.052
100.05
100.048
100.046
100.043
100.035
100.021
100.002
99.9812
99.9681
99.9613
99.9547
99.9483
99.9454
99.9459
99.9464
99.9469
99.9474
99.9479
99.9484
99.9489
99.9496
99.9502
99.9509
99.9515
99.9522
99.9528
99.9534
99.9539
99.9562
15.6779
15.6805
15.6838
15.6879
15.6928
15.6986
15.7052
15.7126
15.7203
15.7281
15.7365
15.7456
15.7568
15.7698
15.7841
15.7996
15.8169
15.836
15.8566
15.8786
15.9022
15.9273
15.9541
15.9826
16.0127
16.0445
16.0781
16.1135
16.1506
16.1893
16.2298
16.2719
16.3156
4.83054
4.83399
4.83798
4.84259
4.84782
4.85368
4.86016
4.86728
4.87506
4.88337
4.89218
4.90163
4.91176
4.92282
4.93486
4.94773
4.96146
4.97618
4.99195
5.00869
5.02645
5.04526
5.06515
5.08617
5.10833
5.13166
5.15618
5.18193
5.2089
5.23713
5.26652
5.29717
5.32892
2.2949
2.29963
2.30477
2.31034
2.31633
2.32273
2.32956
2.33679
2.34443
2.35246
2.36084
2.36963
2.37885
2.38855
2.39876
2.40945
2.42063
2.43233
2.44461
2.45745
2.47086
2.48487
2.4995
2.51478
2.53072
2.54733
2.56464
2.58267
2.6014
2.62089
2.64102
2.66191
2.6834
1.43176
1.43691
1.44233
1.44801
1.45396
1.46016
1.4666
1.47329
1.48021
1.48736
1.49471
1.5023
1.51013
1.51822
1.52659
1.53522
1.54414
1.55335
1.56289
1.57276
1.58297
1.59353
1.60447
1.6158
1.62754
1.63969
1.65226
1.66527
1.67871
1.6926
1.70683
1.72153
1.73651
1.0236
1.02843
1.03341
1.03855
1.04382
1.04924
1.05478
1.06044
1.06623
1.07214
1.07816
1.0843
1.09057
1.09698
1.10356
1.11028
1.11718
1.12425
1.13153
1.13902
1.14674
1.15469
1.1629
1.17139
1.18016
1.18921
1.19854
1.20818
1.21808
1.22828
1.23869
1.24939
1.26023
0.785899
0.790002
0.794168
0.798403
0.802694
0.807036
0.811428
0.815864
0.820349
0.824879
0.829448
0.83408
0.838772
0.843534
0.848386
0.853322
0.858363
0.863519
0.868817
0.874256
0.879859
0.885642
0.891614
0.897794
0.904177
0.910765
0.91756
0.924574
0.931777
0.939204
0.946756
0.954547
0.962398
0.63005
0.633274
0.636499
0.63973
0.642956
0.646177
0.649392
0.652597
0.6558
0.659
0.662197
0.665409
0.668639
0.671896
0.675197
0.678544
0.681956
0.685443
0.689031
0.692723
0.69654
0.700496
0.704596
0.708855
0.713268
0.717842
0.722577
0.727488
0.732548
0.737797
0.743141
0.7487
0.754301
0.519651
0.521984
0.524276
0.526531
0.528744
0.530913
0.533042
0.535129
0.537183
0.539203
0.541197
0.543176
0.545149
0.547124
0.54912
0.55114
0.553204
0.555322
0.557516
0.559793
0.562169
0.564655
0.567257
0.569991
0.572857
0.575861
0.579009
0.582314
0.585753
0.58937
0.593078
0.597
0.600973
0.436803
0.438301
0.439734
0.441105
0.442411
0.443655
0.44484
0.445968
0.447048
0.448083
0.449081
0.450054
0.451011
0.451962
0.452925
0.453907
0.454926
0.455991
0.457124
0.45833
0.459623
0.461014
0.462511
0.464133
0.465882
0.467767
0.469792
0.471973
0.474293
0.47679
0.47939
0.482208
0.485099
0.371698
0.372458
0.373141
0.373753
0.374292
0.374764
0.375174
0.375526
0.37583
0.376091
0.376318
0.376523
0.376716
0.376908
0.377114
0.377345
0.377617
0.377942
0.378335
0.378805
0.379365
0.380025
0.380795
0.381692
0.382721
0.383893
0.385211
0.386692
0.388321
0.390135
0.392068
0.394222
0.396471
0.318746
0.318888
0.318955
0.318952
0.318881
0.318748
0.318561
0.318324
0.31805
0.317745
0.317422
0.317089
0.316759
0.31644
0.31615
0.315896
0.315696
0.31556
0.315504
0.315538
0.315674
0.315922
0.316289
0.316791
0.317431
0.318219
0.319161
0.320271
0.321537
0.322993
0.324583
0.326396
0.328315
0.274598
0.274262
0.27386
0.2734
0.272884
0.272321
0.271718
0.271083
0.270427
0.269759
0.269093
0.268436
0.267802
0.2672
0.266642
0.266139
0.265703
0.265345
0.265081
0.264917
0.264867
0.26494
0.265144
0.265491
0.265981
0.26662
0.267413
0.268373
0.269489
0.27079
0.272233
0.273895
0.275669
0.237687
0.237072
0.236404
0.235688
0.234933
0.234142
0.233325
0.232489
0.231642
0.230795
0.229957
0.229139
0.228351
0.227605
0.226908
0.226275
0.225711
0.22523
0.224835
0.224541
0.224352
0.22428
0.224336
0.224525
0.22486
0.225341
0.225964
0.226735
0.227662
0.228737
0.229983
0.231363
0.232934
0.234618
0.205749
0.20493
0.204078
0.203199
0.202301
0.201389
0.200473
0.199561
0.19866
0.197781
0.196927
0.196109
0.195336
0.194616
0.193958
0.193372
0.192867
0.192456
0.192134
0.191912
0.191795
0.19179
0.191906
0.192145
0.192517
0.193017
0.193653
0.194426
0.195343
0.196398
0.197607
0.198938
0.200436
0.202046
0.178376
0.177488
0.176587
0.175676
0.174764
0.173856
0.172961
0.172085
0.171237
0.170427
0.169659
0.168932
0.168256
0.167638
0.167083
0.166601
0.166196
0.165874
0.165639
0.1655
0.16546
0.165526
0.165702
0.16599
0.166395
0.166915
0.167562
0.168335
0.169242
0.170276
0.171451
0.172742
0.174189
0.155115
0.154256
0.153401
0.152547
0.151705
0.150877
0.15007
0.149289
0.14854
0.147828
0.147156
0.146531
0.145959
0.145444
0.144991
0.144605
0.14429
0.144049
0.14389
0.143821
0.143846
0.143969
0.144194
0.144522
0.14496
0.145507
0.146172
0.146953
0.147857
0.148878
0.150029
0.151292
0.152697
0.13551
0.134714
0.133927
0.133151
0.132392
0.131652
0.130939
0.130252
0.129597
0.128976
0.128394
0.12786
0.127377
0.126951
0.126585
0.126283
0.126048
0.125886
0.125803
0.125803
0.12589
0.126068
0.12634
0.126709
0.127179
0.127752
0.128432
0.12922
0.130121
0.13113
0.13226
0.133494
0.13486
0.118889
0.118159
0.117441
0.116738
0.116058
0.1154
0.11477
0.114168
0.1136
0.113067
0.112577
0.112134
0.11174
0.1114
0.111117
0.110896
0.110738
0.11065
0.110635
0.110697
0.110839
0.111065
0.111378
0.11178
0.112277
0.112868
0.113557
0.114346
0.115239
0.116232
0.117336
0.11854
0.119863
0.104656
0.103997
0.103358
0.102736
0.102139
0.101565
0.10102
0.100505
0.100024
0.0995789
0.099176
0.0988172
0.0985061
0.0982455
0.0980386
0.0978888
0.0977995
0.0977746
0.0978172
0.0979304
0.0981176
0.0983813
0.0987254
0.0991513
0.0996637
0.100263
0.100953
0.101734
0.102612
0.103583
0.104655
0.105821
0.107097
0.0924407
0.0918594
0.0913001
0.0907593
0.0902441
0.0897524
0.0892902
0.088857
0.0884579
0.0880939
0.0877698
0.0874868
0.0872485
0.0870571
0.0869157
0.0868271
0.0867944
0.0868206
0.0869086
0.087061
0.0872811
0.0875712
0.0879348
0.0883734
0.0888913
0.0894889
0.0901698
0.0909346
0.0917878
0.0927281
0.0937621
0.0948836
0.0961066
0.0819451
0.0814404
0.0809583
0.0804948
0.0800569
0.079642
0.0792557
0.0788973
0.0785715
0.0782786
0.0780228
0.0778048
0.0776283
0.0774946
0.0774068
0.0773673
0.0773789
0.0774439
0.077565
0.0777448
0.0779861
0.0782911
0.0786632
0.0791038
0.0796168
0.0802028
0.0808652
0.0816049
0.0824261
0.083328
0.0843164
0.0853869
0.0865512
0.0729201
0.0724872
0.0720766
0.071684
0.071316
0.0709698
0.0706508
0.0703577
0.070095
0.0698625
0.069664
0.0694999
0.0693735
0.069286
0.0692403
0.0692382
0.0692822
0.0693745
0.0695175
0.0697136
0.0699654
0.0702751
0.0706457
0.0710787
0.0715777
0.0721436
0.0727794
0.0734864
0.0742684
0.0751251
0.0760617
0.0770754
0.0781756
0.0651548
0.064787
0.0644402
0.0641104
0.0638037
0.0635171
0.0632557
0.063018
0.0628081
0.0626254
0.0624734
0.0623525
0.0622656
0.0622135
0.0621991
0.0622238
0.06229
0.0623995
0.0625547
0.0627576
0.063011
0.0633166
0.0636775
0.064095
0.0645725
0.0651111
0.0657138
0.0663819
0.0671189
0.067925
0.0688049
0.0697569
0.0707891
0.0584699
0.0581592
0.057868
0.0575925
0.057338
0.0571019
0.0568886
0.0566967
0.0565297
0.0563871
0.056272
0.0561845
0.0561275
0.0561016
0.0561093
0.0561519
0.0562316
0.0563499
0.0565094
0.0567116
0.0569592
0.0572539
0.0575985
0.0579945
0.0584449
0.0589511
0.0595157
0.0601403
0.0608281
0.0615797
0.0623994
0.0632863
0.0527119
0.0524503
0.0522065
0.0519769
0.0517661
0.0515719
0.051398
0.0512431
0.0511104
0.0509993
0.0509126
0.0508505
0.0508153
0.0508077
0.0508301
0.0508833
0.0509696
0.0510904
0.0512479
0.0514437
0.0516801
0.051959
0.0522827
0.0526529
0.0530724
0.0535425
0.0540659
0.0546441
0.0552802
0.055975
0.0567325
0.0575524
0.0477498
0.0475298
0.0473256
0.0471341
0.0469594
0.0467993
0.0466571
0.0465318
0.046426
0.0463393
0.0462741
0.0462305
0.0462107
0.0462154
0.0462464
0.0463048
0.0463926
0.046511
0.0466621
0.0468473
0.047069
0.0473286
0.0476286
0.0479704
0.0483568
0.048789
0.0492696
0.0498001
0.0503835
0.0510207
0.0517153
0.0524679
0.0434713
0.0432861
0.0431147
0.0429546
0.0428092
0.0426767
0.0425599
0.0424578
0.0423729
0.0423047
0.0422554
0.0422251
0.0422157
0.0422278
0.0422632
0.0423228
0.0424083
0.042521
0.0426628
0.0428349
0.0430395
0.0432781
0.0435529
0.0438652
0.0442176
0.0446115
0.0450491
0.0455321
0.046063
0.0466432
0.0472759
0.0479619
0.0397808
0.0396243
0.0394799
0.0393454
0.0392237
0.0391133
0.0390165
0.0389327
0.0388638
0.0388096
0.0387719
0.0387508
0.0387481
0.0387642
0.0388009
0.0388588
0.0389397
0.0390446
0.0391753
0.039333
0.0395196
0.0397364
0.0399856
0.0402685
0.0405873
0.0409434
0.0413391
0.0417757
0.0422558
0.0427807
0.0433534
0.043975
0.0365962
0.0364634
0.0363411
0.0362274
0.0361248
0.0360321
0.0359513
0.0358817
0.0358251
0.0357813
0.0357519
0.0357371
0.0357383
0.0357561
0.0357919
0.0358465
0.0359213
0.0360173
0.0361361
0.0362788
0.0364473
0.0366427
0.0368668
0.0371211
0.0374076
0.0377276
0.038083
0.0384755
0.0389071
0.0393794
0.0398949
0.0404551
0.0338476
0.0337344
0.0336301
0.0335335
0.0334463
0.0333678
0.0332995
0.0332411
0.0331939
0.0331579
0.0331345
0.0331238
0.0331271
0.033145
0.0331786
0.0332288
0.0332967
0.0333835
0.0334903
0.0336183
0.0337691
0.0339439
0.0341443
0.0343715
0.0346274
0.0349133
0.035231
0.035582
0.0359682
0.0363911
0.036853
0.0314755
0.0313784
0.031289
0.0312062
0.0311316
0.0310646
0.0310063
0.0309567
0.0309168
0.0308867
0.0308675
0.0308594
0.0308636
0.0308806
0.0309113
0.0309566
0.0310176
0.031095
0.0311903
0.0313043
0.0314384
0.0315938
0.0317718
0.0319739
0.0322014
0.0324557
0.0327385
0.033051
0.0333952
0.0337723
0.0341846
0.029429
0.0293453
0.0292682
0.0291969
0.0291326
0.0290749
0.0290248
0.0289822
0.028948
0.0289224
0.0289062
0.0288998
0.028904
0.0289195
0.028947
0.0289874
0.0290414
0.0291101
0.0291944
0.0292952
0.0294138
0.0295513
0.0297089
0.0298877
0.0300892
0.0303146
0.0305653
0.0308426
0.0311482
0.0314833
0.03185
0.0276649
0.0275925
0.0275257
0.027464
0.0274082
0.0273582
0.0273148
0.0272779
0.0272482
0.0272261
0.0272121
0.0272067
0.0272106
0.0272243
0.0272486
0.0272841
0.0273317
0.027392
0.0274661
0.0275549
0.0276593
0.0277804
0.0279192
0.0280769
0.0282547
0.0284537
0.0286753
0.0289206
0.0291911
0.029488
0.0298132
0.0261466
0.0260837
0.0260256
0.025972
0.0259235
0.0258799
0.0258421
0.0258099
0.025784
0.0257646
0.0257523
0.0257476
0.0257509
0.0257627
0.0257838
0.0258148
0.0258563
0.025909
0.0259738
0.0260515
0.026143
0.0262492
0.0263711
0.0265096
0.026666
0.0268411
0.0270363
0.0272525
0.0274913
0.0277535
0.0280411
0.0248429
0.0247882
0.0247376
0.0246909
0.0246486
0.0246106
0.0245775
0.0245493
0.0245265
0.0245095
0.0244985
0.0244941
0.0244967
0.0245068
0.024525
0.0245517
0.0245876
0.0246334
0.0246898
0.0247574
0.0248372
0.0249299
0.0250364
0.0251576
0.0252946
0.0254481
0.0256195
0.0258095
0.0260195
0.0262505
0.0237274
0.0236799
0.0236359
0.0235952
0.0235583
0.0235252
0.0234962
0.0234715
0.0234514
0.0234363
0.0234265
0.0234223
0.0234243
0.0234327
0.023448
0.0234709
0.0235018
0.0235412
0.0235899
0.0236485
0.0237177
0.0237981
0.0238908
0.0239963
0.0241157
0.0242498
0.0243995
0.0245659
0.0247499
0.0249526
0.0227778
0.0227367
0.0226985
0.0226632
0.0226311
0.0226023
0.022577
0.0225554
0.0225378
0.0225244
0.0225156
0.0225116
0.0225129
0.0225197
0.0225326
0.0225519
0.0225782
0.0226119
0.0226536
0.0227039
0.0227635
0.0228329
0.0229129
0.0230042
0.0231076
0.023224
0.0233542
0.0234991
0.0236596
0.0238367
0.0219753
0.0219399
0.021907
0.0218766
0.0218489
0.0218239
0.021802
0.0217832
0.0217678
0.021756
0.0217481
0.0217443
0.021745
0.0217505
0.0217611
0.0217772
0.0217993
0.0218278
0.0218631
0.0219059
0.0219566
0.0220159
0.0220844
0.0221627
0.0222517
0.0223519
0.0224643
0.0225896
0.0227287
0.0228825
0.0213039
0.0212738
0.0212458
0.0212199
0.0211962
0.0211749
0.0211561
0.0211399
0.0211266
0.0211163
0.0211092
0.0211057
0.0211059
0.0211101
0.0211186
0.0211318
0.0211501
0.0211737
0.0212033
0.0212391
0.0212817
0.0213317
0.0213896
0.021456
0.0215316
0.021617
0.0217131
0.0218204
0.02194
0.0220724
0.0207503
0.0207251
0.0207017
0.02068
0.0206601
0.0206422
0.0206264
0.0206127
0.0206013
0.0205925
0.0205863
0.020583
0.0205828
0.0205859
0.0205926
0.0206031
0.0206178
0.020637
0.0206611
0.0206905
0.0207257
0.020767
0.0208151
0.0208704
0.0209336
0.0210054
0.0210863
0.0211771
0.0212785
0.0203032
0.0202828
0.0202637
0.020246
0.0202298
0.0202151
0.0202021
0.0201909
0.0201815
0.0201741
0.0201688
0.0201658
0.0201652
0.0201673
0.0201723
0.0201804
0.0201918
0.0202069
0.020226
0.0202493
0.0202774
0.0203107
0.0203495
0.0203945
0.0204462
0.020505
0.0205718
0.0206471
0.0207316
0.0199533
0.0199373
0.0199224
0.0199086
0.019896
0.0198845
0.0198743
0.0198655
0.019858
0.0198521
0.0198477
0.0198451
0.0198444
0.0198456
0.019849
0.0198548
0.0198632
0.0198743
0.0198886
0.0199063
0.0199278
0.0199534
0.0199835
0.0200186
0.0200593
0.020106
0.0201594
0.0202201
0.0202887
0.0196925
0.019681
0.0196702
0.0196603
0.0196512
0.0196429
0.0196355
0.0196291
0.0196236
0.0196191
0.0196158
0.0196136
0.0196128
0.0196133
0.0196153
0.0196189
0.0196244
0.0196319
0.0196417
0.019654
0.019669
0.0196873
0.0197091
0.0197348
0.0197649
0.0198
0.0198406
0.0198874
0.0195145
0.0195073
0.0195007
0.0194946
0.019489
0.019484
0.0194794
0.0194754
0.019472
0.0194692
0.0194669
0.0194653
0.0194645
0.0194643
0.0194651
0.0194668
0.0194695
0.0194735
0.0194789
0.019486
0.019495
0.0195061
0.0195198
0.0195364
0.0195564
0.0195802
0.0196084
0.0196416
0.0194138
0.019411
0.0194086
0.0194063
0.0194044
0.0194026
0.019401
0.0193996
0.0193983
0.0193972
0.0193961
0.0193952
0.0193945
0.0193939
0.0193935
0.0193934
0.0193936
0.0193942
0.0193955
0.0193975
0.0194005
0.0194047
0.0194105
0.0194181
0.0194282
0.019441
0.0194571
0.0194771
0.0193859
0.0193877
0.0193894
0.0193912
0.019393
0.0193946
0.0193961
0.0193974
0.0193984
0.0193991
0.0193994
0.0193994
0.019399
0.0193981
0.0193967
0.0193949
0.0193927
0.0193901
0.0193873
0.0193844
0.0193816
0.019379
0.019377
0.0193759
0.019376
0.019378
0.0193821
0.0194273
0.0194337
0.0194399
0.0194458
0.0194514
0.0194566
0.0194614
0.0194655
0.019469
0.0194718
0.0194737
0.0194747
0.0194748
0.0194737
0.0194716
0.0194683
0.0194638
0.0194582
0.0194515
0.0194438
0.0194352
0.019426
0.0194162
0.0194064
0.0193967
0.0193878
0.01938
0.0195352
0.0195464
0.0195571
0.0195674
0.0195771
0.019586
0.0195942
0.0196015
0.0196077
0.0196127
0.0196165
0.0196188
0.0196195
0.0196186
0.0196159
0.0196113
0.0196048
0.0195963
0.0195859
0.0195735
0.0195592
0.0195433
0.0195259
0.0195073
0.0194878
0.0194679
0.0194481
0.0197073
0.0197234
0.019739
0.0197538
0.0197678
0.0197808
0.0197927
0.0198033
0.0198125
0.0198201
0.0198259
0.0198298
0.0198315
0.0198309
0.0198279
0.0198223
0.0198139
0.0198027
0.0197887
0.0197718
0.019752
0.0197295
0.0197044
0.0196771
0.0196477
0.0196168
0.019942
0.0199634
0.0199839
0.0200036
0.0200221
0.0200394
0.0200553
0.0200696
0.0200821
0.0200925
0.0201007
0.0201064
0.0201094
0.0201095
0.0201065
0.0201001
0.0200901
0.0200765
0.0200591
0.0200378
0.0200126
0.0199836
0.0199509
0.0199147
0.0198754
0.0198332
0.0202383
0.0202651
0.0202909
0.0203156
0.020339
0.0203609
0.0203811
0.0203994
0.0204154
0.0204291
0.02044
0.0204479
0.0204526
0.0204537
0.0204509
0.0204441
0.0204329
0.0204171
0.0203965
0.020371
0.0203406
0.0203052
0.0202649
0.0202199
0.0201705
0.020117
0.0205955
0.020628
0.0206594
0.0206894
0.020718
0.0207448
0.0207696
0.0207922
0.0208122
0.0208294
0.0208434
0.0208539
0.0208605
0.020863
0.0208609
0.020854
0.0208418
0.0208242
0.0208008
0.0207714
0.0207359
0.0206943
0.0206465
0.0205926
0.020533
0.0210137
0.0210522
0.0210893
0.021125
0.021159
0.021191
0.0212207
0.0212479
0.0212722
0.0212933
0.0213108
0.0213242
0.0213333
0.0213375
0.0213365
0.0213299
0.0213171
0.021298
0.0212721
0.0212391
0.0211988
0.0211511
0.0210959
0.0210334
0.0209636
0.0214936
0.0215382
0.0215814
0.021623
0.0216626
0.0217001
0.021735
0.0217671
0.021796
0.0218213
0.0218426
0.0218593
0.0218711
0.0218775
0.0218779
0.021872
0.0218591
0.0218388
0.0218108
0.0217745
0.0217297
0.0216763
0.0216139
0.0215427
0.0214627
0.0220366
0.0220875
0.0221369
0.0221845
0.0222301
0.0222732
0.0223136
0.0223508
0.0223846
0.0224143
0.0224396
0.02246
0.0224748
0.0224837
0.0224859
0.0224809
0.0224682
0.0224472
0.0224174
0.0223782
0.0223293
0.0222703
0.022201
0.0221214
0.0226451
0.0227025
0.0227582
0.0228119
0.0228635
0.0229124
0.0229584
0.0230009
0.0230396
0.023074
0.0231035
0.0231276
0.0231457
0.0231572
0.0231615
0.0231578
0.0231455
0.023124
0.0230927
0.0230509
0.0229982
0.022934
0.0228581
0.0227703
0.0233229
0.0233866
0.0234486
0.0235086
0.0235661
0.0236209
0.0236724
0.0237203
0.023764
0.023803
0.0238367
0.0238646
0.0238859
0.0239001
0.0239064
0.023904
0.0238923
0.0238705
0.0238378
0.0237937
0.0237373
0.0236682
0.0235859
0.0240753
0.0241453
0.0242135
0.0242795
0.0243429
0.0244034
0.0244604
0.0245134
0.0245619
0.0246053
0.0246431
0.0246744
0.0246988
0.0247154
0.0247234
0.0247222
0.0247108
0.0246884
0.0246544
0.0246077
0.0245478
0.0244738
0.0243853
0.0249102
0.0249862
0.0250602
0.025132
0.025201
0.0252668
0.025329
0.0253868
0.0254398
0.0254871
0.0255283
0.0255626
0.0255893
0.0256077
0.0256169
0.025616
0.0256044
0.0255809
0.0255449
0.0254953
0.0254314
0.0253523
0.0252573
0.0258384
0.0259201
0.0259994
0.0260763
0.0261502
0.0262209
0.0262876
0.0263497
0.0264065
0.026457
0.0265008
0.0265371
0.0265652
0.0265842
0.0265933
0.0265917
0.0265785
0.0265527
0.0265134
0.0264598
0.0263909
0.0263057
0.0268749
0.0269617
0.0270457
0.0271266
0.0272044
0.0272788
0.0273492
0.0274148
0.0274746
0.0275274
0.0275726
0.0276095
0.0276373
0.0276553
0.0276625
0.0276582
0.0276414
0.0276112
0.0275667
0.0275069
0.027431
0.0273381
0.0280383
0.0281299
0.0282177
0.0283016
0.0283815
0.0284577
0.0285302
0.0285977
0.0286596
0.0287136
0.0287588
0.0287948
0.0288204
0.0288352
0.028838
0.0288283
0.028805
0.0287673
0.0287144
0.0286454
0.0285594
0.0293384
0.0294371
0.0295305
0.0296182
0.0297004
0.029777
0.0298486
0.0299152
0.0299779
0.0300324
0.0300762
0.0301095
0.030131
0.0301401
0.0301358
0.0301174
0.030084
0.0300351
0.0299696
0.0298871
0.0297865
0.0307623
0.030873
0.0309769
0.0310735
0.0311622
0.0312425
0.031315
0.0313806
0.0314406
0.0314954
0.0315372
0.0315668
0.0315826
0.0315841
0.0315702
0.0315402
0.0314934
0.031429
0.0313466
0.0312456
0.0322876
0.0324153
0.0325352
0.0326464
0.0327481
0.0328388
0.0329195
0.0329894
0.0330488
0.0331029
0.0331434
0.0331696
0.0331796
0.0331728
0.0331482
0.0331049
0.0330421
0.0329593
0.032856
0.0327321
0.033898
0.0340472
0.0341881
0.0343194
0.0344401
0.0345476
0.0346428
0.034724
0.0347909
0.0348455
0.0348864
0.034911
0.0349166
0.0349027
0.0348678
0.0348112
0.0347318
0.034629
0.0345021
0.0355818
0.0357567
0.0359233
0.0360802
0.0362272
0.0363577
0.0364741
0.0365737
0.0366546
0.0367139
0.0367569
0.0367832
0.0367876
0.0367691
0.036726
0.0366575
0.0365623
0.0364394
0.0362874
0.0373272
0.0375315
0.0377277
0.037914
0.0380887
0.0382491
0.0383937
0.0385197
0.0386238
0.038701
0.0387553
0.0387876
0.0387956
0.0387768
0.0387289
0.0386511
0.038542
0.0384006
0.0382223
0.0391709
0.0394086
0.0396385
0.0398585
0.0400654
0.0402616
0.0404406
0.0406
0.0407358
0.0408444
0.0409232
0.0409692
0.0409837
0.0409674
0.0409155
0.0408276
0.0407017
0.0405366
0.0411532
0.0414284
0.0416978
0.0419581
0.0422075
0.0424448
0.0426651
0.0428655
0.0430414
0.0431892
0.0433046
0.0433817
0.0434184
0.0434127
0.0433614
0.0432654
0.0431231
0.0429309
0.0432716
0.0435857
0.0438966
0.0442019
0.0444989
0.0447845
0.0450541
0.045305
0.0455321
0.0457316
0.0458979
0.0460253
0.0461093
0.0461402
0.0461158
0.046032
0.0458861
0.0455332
0.0458876
0.0462409
0.0465922
0.0469388
0.0472773
0.0476038
0.047914
0.0482014
0.0484635
0.0486933
0.0488846
0.0490315
0.049125
0.0491583
0.0491207
0.0490049
0.047937
0.0483358
0.0487352
0.049134
0.0495305
0.049923
0.050308
0.0506809
0.0510378
0.0513727
0.0516779
0.0519461
0.0521717
0.0523445
0.0524552
0.0524931
0.0504818
0.0509285
0.0513776
0.0518282
0.0522788
0.0527273
0.0531708
0.0536067
0.0540339
0.0544443
0.0548315
0.0551886
0.0555069
0.0557763
0.0559844
0.0561202
0.053661
0.0541632
0.0546691
0.0551781
0.0556879
0.0561956
0.0566989
0.0571951
0.0576792
0.0581482
0.0585962
0.0590122
0.0593877
0.0597105
0.0565311
0.0570896
0.0576538
0.0582225
0.0587942
0.059367
0.0599388
0.0605071
0.0610671
0.0616181
0.0621538
0.062667
0.0631502
0.0635933
0.0595059
0.0601196
0.0607407
0.0613673
0.0619994
0.0626361
0.063276
0.0639168
0.0645561
0.0651916
0.0658186
0.0664317
0.0670242
0.0675871
0.0625083
0.0631735
0.0638484
0.064532
0.0652246
0.0659255
0.0666336
0.0673476
0.0680659
0.0687867
0.0695064
0.070221
0.0709249
0.0654632
0.0661773
0.0669029
0.0676399
0.0683887
0.0691488
0.06992
0.0707016
0.0714931
0.0722933
0.0731003
0.0739116
0.0747238
0.0682991
0.0690558
0.0698254
0.0706081
0.0714043
0.0722142
0.073038
0.0738759
0.0747281
0.0755948
0.0764756
0.07737
0.0709453
0.071736
0.07254
0.0733577
0.0741897
0.0750364
0.0758987
0.0767774
0.0776735
0.0785882
0.0795229
0.0804789
0.0733388
0.0741535
0.074981
0.0758216
0.0766762
0.0775454
0.0784304
0.0793324
0.0802534
0.0811953
0.0821608
0.0754273
0.0762558
0.0770956
0.0779472
0.0788112
0.0796886
0.0805807
0.081489
0.082416
0.0833642
0.0843373
0.0771698
0.0780025
0.0788443
0.0796955
0.0805569
0.0814293
0.0823141
0.0832131
0.0841287
0.0850641
0.0860234
0.078535
0.0793632
0.0801978
0.0810388
0.0818868
0.0827426
0.0836075
0.0844832
0.0853721
0.0862777
0.0794988
0.0803151
0.0811342
0.0819563
0.0827816
0.0836107
0.0844446
0.0852848
0.0861338
0.0869946
0.080043
0.0808401
0.0816365
0.0824318
0.0832259
0.0840192
0.0848122
0.0856063
0.0864033
0.0872062
0.0801544
0.0809252
0.0816912
0.0824518
0.0832064
0.083955
0.0846977
0.0854354
0.0861695
0.079828
0.080564
0.0812911
0.082008
0.0827138
0.083408
0.0840903
0.084761
0.0854208
0.0790724
0.0797641
0.0804421
0.0811049
0.0817511
0.0823797
0.0829898
0.0835812
0.0841542
0.0779177
0.0785551
0.0791736
0.0797714
0.0803465
0.0808975
0.0814231
0.0819224
0.0764221
0.0769969
0.0775474
0.0780714
0.0785664
0.0790306
0.079462
0.0798594
0.0746748
0.0751826
0.075661
0.0761075
0.0765192
0.0768937
0.0772289
0.0775229
0.0727924
0.0732335
0.0736412
0.0740127
0.0743449
0.0746353
0.0748812
0.0709003
0.0712793
0.0716226
0.0719269
0.0721893
0.072407
0.0725772
0.0690968
0.0694216
0.0697093
0.0699569
0.0701614
0.07032
0.0704301
0.0674133
0.0676922
0.0679335
0.0681343
0.0682916
0.0684025
0.0658432
0.0660835
0.0662859
0.0664477
0.0665659
0.0666378
0.0643876
0.0645948
0.0647643
0.0648934
0.0649793
0.0650193
0.0630523
0.0632312
0.0633729
0.0634747
0.0635339
0.0635481
0.0618414
0.0619963
0.0621145
0.0621935
0.0622309
0.0607582
0.0608925
0.0609909
0.0610509
0.0610704
0.059805
0.0599217
0.0600033
0.0600476
0.0600523
0.0589836
0.0590852
0.0591526
0.0591837
0.0591763
0.0582957
0.0583843
0.0584397
0.0584597
0.0577428
0.0578202
0.0578652
0.0578759
0.0573266
0.0573944
0.0574305
0.0574332
0.0570493
0.0571085
0.0571369
0.0571327
0.0569134
0.0569651
0.0569867
0.0569765
0.056922
0.056967
0.0569826
0.056967
0.0570794
0.0571183
0.0571284
0.0573905
0.057424
0.057429
0.0578617
0.0578902
0.0578905
0.058501
0.0585247
0.0585205
0.0593179
0.0593371
0.0593286
0.0603241
0.0603389
0.0603262
0.0615338
0.0615445
0.0629643
0.0629708
0.0646364
0.0646388
0.0665755
0.0665738
0.0688123
0.0688065
0.0713845
0.0713745
0.0743384
0.0743242
0.0777312
0.0777128
0.0816346
0.081612
0.0861388
0.091359
0.0974445
0.104591
0.113062
0.123216
0.135554
0.150798
0.170017
0.19485
0.227912
0.273551
0.339301
0.438661
0.596166
)
;

boundaryField
{
    bottomWall
    {
        type            omegaWallFunction;
        beta1           0.075;
        blended         0;
        value           nonuniform 0();
    }
    defaultFaces
    {
        type            empty;
    }
    inlet
    {
        type            cyclic;
    }
    outlet
    {
        type            cyclic;
    }
    topWall
    {
        type            omegaWallFunction;
        beta1           0.075;
        blended         0;
        value           nonuniform List<scalar> 
33
(
100.058
100.056
100.054
100.052
100.05
100.048
100.046
100.043
100.035
100.021
100.002
99.9812
99.9681
99.9613
99.9547
99.9483
99.9454
99.9459
99.9464
99.9469
99.9474
99.9479
99.9484
99.9489
99.9496
99.9502
99.9509
99.9515
99.9522
99.9528
99.9534
99.9539
99.9562
)
;
    }
    procBoundary2to0
    {
        type            processor;
        value           nonuniform List<scalar> 
175
(
99.9603
16.361
5.3618
5.3618
2.70551
1.75182
1.27126
0.970391
0.760044
0.605109
0.488175
0.39892
0.330439
0.277641
0.236486
0.203825
0.175745
0.175745
0.154207
0.136326
0.121282
0.108465
0.0974167
0.0877982
0.0793545
0.0718957
0.0642475
0.0642475
0.0584409
0.0532836
0.0487059
0.0446496
0.0410637
0.0373555
0.0373555
0.0346336
0.0322498
0.0301682
0.0283554
0.026504
0.026504
0.0251754
0.0240316
0.0230521
0.0222189
0.0213913
0.0213913
0.0208261
0.020366
0.0199408
0.0199408
0.0196805
0.0195017
0.0193891
0.0193891
0.019374
0.019429
0.0195848
0.0195848
0.0197889
0.02006
0.0204681
0.0204681
0.0208869
0.0213744
0.0220314
0.0220314
0.0226704
0.0234901
0.0234901
0.0242817
0.0251459
0.0262036
0.0262036
0.0272272
0.0284555
0.0284555
0.0296675
0.0311253
0.0311253
0.0325869
0.0343521
0.0343521
0.0361089
0.0380126
0.0403323
0.0403323
0.0426956
0.0456768
0.0456768
0.0488078
0.0524465
0.0524465
0.0561679
0.0599654
0.0599654
0.0639796
0.0681082
0.0716111
0.0716111
0.0755317
0.0782768
0.0782768
0.0814574
0.0831529
0.0831529
0.0853396
0.0870118
0.0872042
0.0872042
0.0878716
0.088019
0.0869024
0.0869024
0.0860715
0.0847098
0.0823951
0.0823951
0.080222
0.0777744
0.0750805
0.0750805
0.0726978
0.0704892
0.0684645
0.0684645
0.0666608
0.065011
0.0635147
0.0622241
0.0622241
0.0610468
0.0600152
0.0591284
0.0584423
0.0584423
0.0578503
0.0574007
0.0570943
0.056933
0.056919
0.057108
0.057108
0.0574041
0.0578614
0.0584873
0.0592912
0.0602847
0.0615275
0.0615275
0.0629496
0.0646132
0.0665436
0.0687715
0.0713347
0.0742792
0.0776625
0.0815563
0.0861121
0.0861121
0.0913285
0.0974108
0.104555
0.113025
0.123181
0.135525
0.150782
0.170025
0.194901
0.228037
0.273802
0.339765
0.439466
0.597458
0.856117
)
;
    }
    procBoundary2to3
    {
        type            processor;
        value           nonuniform List<scalar> 
121
(
0.0824641
0.0733676
0.0655369
0.0587939
0.0529857
0.0479808
0.0436665
0.039946
0.0367367
0.0339677
0.0315785
0.0295179
0.0277419
0.0262134
0.024901
0.0237779
0.0228215
0.0220129
0.0213359
0.0207771
0.020325
0.0199703
0.0197049
0.0195222
0.0194168
0.0193843
0.0194209
0.0195237
0.0196907
0.01992
0.0202107
0.020562
0.0209742
0.0214478
0.0219844
0.0225864
0.0232577
0.0240037
0.0248323
0.0257547
0.0267855
0.0279428
0.0292343
0.030645
0.0321526
0.0337412
0.0353995
0.0371161
0.0389268
0.0408741
0.0429568
0.0451789
0.0475399
0.0500384
0.0531631
0.0531631
0.0559791
0.0589006
0.0618532
0.0647609
0.0675551
0.0701676
0.0725364
0.0746097
0.076346
0.0777129
0.0786857
0.0792455
0.0793796
0.079084
0.0783686
0.0772636
0.0758256
0.0741406
0.0723212
0.0704886
0.0687382
0.0670998
0.065568
0.0641455
0.0628387
0.0616524
0.0605904
0.0596555
0.0588499
0.0581757
0.0576347
0.0572291
0.0569609
0.0568331
0.056849
0.0570128
0.0573298
0.0578065
0.0584507
0.0592722
0.0602827
0.0614965
0.0629309
0.0646068
0.0665495
0.0687898
0.0713655
0.0743226
0.0777186
0.0816248
0.0861315
0.0913537
0.0974403
0.104587
0.113056
0.123204
0.135532
0.150759
0.169949
0.194734
0.227716
0.273223
0.338755
0.437766
0.594763
)
;
    }
    procBoundary2to4
    {
        type            processor;
        value           nonuniform List<scalar> 
15
(
100.058
15.6759
15.6759
4.82767
2.29061
1.4269
1.01894
0.781877
0.626841
0.517286
0.435244
0.370864
0.318526
0.274866
0.274866
)
;
    }
    procBoundary2to5
    {
        type            processor;
        value           nonuniform List<scalar> 8(0.238245 0.206528 0.179245 0.155975 0.13631 0.119624 0.105324 0.0930346);
    }
}


// ************************************************************************* //
