/*--------------------------------*- C++ -*----------------------------------*\
  =========                 |
  \\      /  F ield         | OpenFOAM: The Open Source CFD Toolbox
   \\    /   O peration     | Website:  https://openfoam.org
    \\  /    A nd           | Version:  7
     \\/     M anipulation  |
\*---------------------------------------------------------------------------*/
FoamFile
{
    version     2.0;
    format      ascii;
    class       volSymmTensorField;
    location    "25000";
    object      Tau;
}
// * * * * * * * * * * * * * * * * * * * * * * * * * * * * * * * * * * * * * //

dimensions      [0 2 -2 0 0 0 0];

internalField   nonuniform List<symmTensor> 
2444
(
(1.70646e-08 1.21986e-10 1.64972e-36 1.70646e-08 1.16731e-32 1.70646e-08)
(1.72245e-08 1.23082e-10 -4.70795e-36 1.72245e-08 -1.68901e-35 1.72245e-08)
(1.73617e-08 1.23991e-10 -3.38097e-34 1.73617e-08 -1.78282e-31 1.73617e-08)
(1.74741e-08 1.24693e-10 -2.83571e-33 1.74741e-08 3.51425e-31 1.74741e-08)
(1.75594e-08 1.2517e-10 3.55663e-34 1.75594e-08 4.19959e-32 1.75594e-08)
(1.76163e-08 1.2541e-10 -1.59755e-35 1.76163e-08 -3.31665e-31 1.76163e-08)
(1.76425e-08 1.25396e-10 2.52719e-36 1.76425e-08 -4.06126e-32 1.76425e-08)
(1.76255e-08 1.25014e-10 -2.67477e-37 1.76255e-08 5.40357e-31 1.76255e-08)
(1.75559e-08 1.24179e-10 1.08729e-33 1.75559e-08 7.51401e-32 1.75559e-08)
(1.74266e-08 1.22835e-10 1.32358e-32 1.74266e-08 -7.7589e-32 1.74266e-08)
(1.72243e-08 1.20862e-10 2.08989e-32 1.72243e-08 5.11447e-32 1.72243e-08)
(1.69365e-08 1.18163e-10 -1.93961e-33 1.69366e-08 1.86943e-34 1.69365e-08)
(1.65504e-08 1.14633e-10 3.89705e-35 1.65505e-08 -1.12852e-31 1.65505e-08)
(1.6051e-08 1.10159e-10 -3.78007e-34 1.60511e-08 1.09313e-31 1.60511e-08)
(1.54319e-08 1.04724e-10 -4.55812e-33 1.5432e-08 2.47106e-33 1.54319e-08)
(1.46906e-08 9.83517e-11 4.91464e-33 1.46906e-08 -2.46277e-33 1.46906e-08)
(1.3833e-08 9.11473e-11 -3.25808e-34 1.38331e-08 -6.53058e-39 1.3833e-08)
(1.2873e-08 8.32888e-11 -5.04997e-35 1.28731e-08 -1.82632e-34 1.2873e-08)
(1.18374e-08 7.50586e-11 5.96548e-35 1.18375e-08 -4.40964e-31 1.18374e-08)
(1.07609e-08 6.67791e-11 -6.14818e-36 1.0761e-08 -1.62883e-40 1.07609e-08)
(9.68163e-09 5.87657e-11 8.54979e-39 9.68171e-09 7.06594e-32 9.68167e-09)
(8.63764e-09 5.12941e-11 -6.87494e-39 8.6377e-09 -6.24994e-32 8.63767e-09)
(7.66025e-09 4.45515e-11 -9.64646e-36 7.66029e-09 -3.32718e-40 7.66027e-09)
(6.77165e-09 3.86323e-11 -2.16342e-34 6.77169e-09 7.38945e-35 6.77167e-09)
(5.98427e-09 3.3551e-11 5.90883e-35 5.98429e-09 7.1046e-35 5.98428e-09)
(5.30176e-09 2.92661e-11 1.59934e-34 5.30177e-09 -5.20615e-35 5.30176e-09)
(4.72228e-09 2.5719e-11 -7.27945e-35 4.72228e-09 -8.18169e-35 4.72228e-09)
(4.24092e-09 2.28473e-11 1.33797e-34 4.24091e-09 -7.96641e-32 4.24091e-09)
(3.85103e-09 2.05933e-11 2.53717e-35 3.85102e-09 2.20097e-35 3.85102e-09)
(3.54147e-09 1.88703e-11 -1.08144e-34 3.54145e-09 8.30785e-36 3.54146e-09)
(3.2992e-09 1.75856e-11 8.51663e-37 3.29918e-09 1.42607e-32 3.29919e-09)
(3.11382e-09 1.6668e-11 -2.49796e-37 3.1138e-09 -5.85625e-34 3.11381e-09)
(2.97321e-09 1.60353e-11 2.30241e-35 2.97319e-09 -1.07213e-32 2.9732e-09)
(3.06386e-07 8.90904e-09 3.12611e-31 3.06384e-07 1.11822e-31 3.06385e-07)
(3.09304e-07 9.00585e-09 -6.56557e-31 3.09302e-07 -2.73407e-30 3.09303e-07)
(3.11832e-07 9.08789e-09 -4.84721e-30 3.1183e-07 1.72743e-29 3.11831e-07)
(3.13926e-07 9.15348e-09 1.32137e-29 3.13924e-07 -2.2697e-29 3.13925e-07)
(3.15548e-07 9.20101e-09 -1.28954e-30 3.15546e-07 -8.77689e-29 3.15547e-07)
(3.16671e-07 9.22972e-09 -1.26536e-29 3.16669e-07 1.21809e-29 3.1667e-07)
(3.17246e-07 9.23798e-09 1.91626e-30 3.17245e-07 9.54073e-30 3.17245e-07)
(3.17054e-07 9.21667e-09 2.285e-29 3.17054e-07 -4.17261e-29 3.17054e-07)
(3.15932e-07 9.15945e-09 -2.6167e-33 3.15933e-07 1.04831e-30 3.15933e-07)
(3.13749e-07 9.06166e-09 -3.15568e-30 3.13751e-07 -1.39798e-28 3.1375e-07)
(3.10265e-07 8.91411e-09 1.16993e-30 3.1027e-07 1.27358e-28 3.10267e-07)
(3.05259e-07 8.70913e-09 -4.04815e-31 3.05266e-07 2.26874e-29 3.05262e-07)
(2.98491e-07 8.43877e-09 -3.69876e-30 2.985e-07 9.77828e-29 2.98495e-07)
(2.89705e-07 8.09528e-09 4.37084e-30 2.89717e-07 1.05057e-28 2.89711e-07)
(2.78782e-07 7.67795e-09 -9.56828e-32 2.78797e-07 1.06428e-28 2.78789e-07)
(2.65672e-07 7.1896e-09 -3.15033e-31 2.65688e-07 -2.16331e-29 2.6568e-07)
(2.50472e-07 6.6397e-09 3.49178e-32 2.5049e-07 9.53502e-30 2.50481e-07)
(2.33425e-07 6.04324e-09 -1.63357e-30 2.33443e-07 -1.27247e-28 2.33434e-07)
(2.14999e-07 5.42268e-09 -2.90395e-29 2.15017e-07 1.02069e-29 2.15008e-07)
(1.95801e-07 4.80278e-09 1.58249e-30 1.95817e-07 2.22878e-29 1.95809e-07)
(1.76508e-07 4.20728e-09 3.82165e-30 1.76522e-07 -8.92088e-30 1.76515e-07)
(1.57798e-07 3.65606e-09 -3.77514e-30 1.5781e-07 6.32565e-30 1.57804e-07)
(1.4024e-07 3.16197e-09 1.78012e-31 1.40249e-07 -1.13204e-29 1.40245e-07)
(1.24248e-07 2.73099e-09 1.37742e-32 1.24254e-07 4.67237e-30 1.24251e-07)
(1.1006e-07 2.36303e-09 -1.35205e-33 1.10063e-07 -4.25277e-33 1.10061e-07)
(9.77546e-08 2.05428e-09 -1.29737e-32 9.77561e-08 -1.94826e-29 9.77553e-08)
(8.72968e-08 1.79939e-09 -2.80558e-31 8.72966e-08 2.80902e-29 8.72967e-08)
(7.85954e-08 1.5933e-09 -1.72558e-29 7.8594e-08 -1.52378e-29 7.85947e-08)
(7.15426e-08 1.43188e-09 2.24599e-31 7.15402e-08 -1.29097e-29 7.15413e-08)
(6.59384e-08 1.30859e-09 5.52386e-32 6.59353e-08 7.21275e-31 6.59368e-08)
(6.15486e-08 1.21654e-09 1.32707e-29 6.15448e-08 -1.4584e-30 6.15467e-08)
(5.81887e-08 1.15043e-09 -1.26678e-29 5.81844e-08 3.9599e-32 5.81865e-08)
(5.56427e-08 1.10438e-09 1.21281e-29 5.5638e-08 3.24148e-30 5.56403e-08)
(1.28956e-06 1.0035e-07 1.01738e-28 1.2895e-06 -1.04055e-28 1.28953e-06)
(1.3032e-06 1.0191e-07 -9.64978e-30 1.30313e-06 6.67783e-29 1.30317e-06)
(1.31542e-06 1.03292e-07 -8.41799e-30 1.31535e-06 -5.39206e-29 1.31539e-06)
(1.32604e-06 1.04471e-07 1.12229e-28 1.32597e-06 1.58988e-28 1.32601e-06)
(1.33488e-06 1.05421e-07 -2.43937e-28 1.3348e-06 -4.01426e-28 1.33484e-06)
(1.34175e-06 1.0612e-07 -8.48104e-28 1.34169e-06 7.93581e-28 1.34172e-06)
(1.34653e-06 1.06553e-07 1.53749e-28 1.34647e-06 1.79198e-28 1.3465e-06)
(1.34895e-06 1.06693e-07 4.46798e-29 1.3489e-06 4.32598e-29 1.34893e-06)
(1.34822e-06 1.06428e-07 -3.54501e-28 1.34818e-06 -1.66013e-27 1.3482e-06)
(1.34366e-06 1.05678e-07 -6.06809e-29 1.34365e-06 -1.36235e-27 1.34366e-06)
(1.33471e-06 1.04375e-07 -1.54733e-27 1.33473e-06 9.87468e-28 1.33472e-06)
(1.32043e-06 1.02416e-07 1.70537e-27 1.32049e-06 -8.6397e-28 1.32046e-06)
(1.2999e-06 9.97011e-08 2.22862e-28 1.3e-06 2.20056e-27 1.29995e-06)
(1.27216e-06 9.6142e-08 1.40067e-27 1.27231e-06 -9.34347e-28 1.27223e-06)
(1.23619e-06 9.16593e-08 1.43685e-27 1.23639e-06 -8.76648e-28 1.23629e-06)
(1.19142e-06 8.62526e-08 1.40059e-27 1.19166e-06 -5.13144e-28 1.19154e-06)
(1.13755e-06 7.99809e-08 -3.08366e-28 1.13783e-06 -2.05183e-28 1.13769e-06)
(1.07488e-06 7.29885e-08 4.41389e-29 1.07519e-06 1.63688e-28 1.07503e-06)
(1.00429e-06 6.54941e-08 -2.01561e-27 1.00461e-06 -1.49252e-27 1.00445e-06)
(9.27578e-07 5.77997e-08 1.77986e-28 9.27888e-07 2.23185e-27 9.27733e-07)
(8.47146e-07 5.02338e-08 2.9943e-28 8.47429e-07 1.10605e-28 8.47287e-07)
(7.65766e-07 4.30951e-08 -1.41022e-28 7.66009e-07 -1.30633e-28 7.65887e-07)
(6.8631e-07 3.66216e-08 1.10096e-28 6.86506e-07 1.53804e-28 6.86407e-07)
(6.11275e-07 3.09504e-08 -1.91363e-28 6.11421e-07 -1.05413e-28 6.11347e-07)
(5.42552e-07 2.61218e-08 8.59289e-29 5.42653e-07 6.73409e-29 5.42601e-07)
(4.81315e-07 2.21004e-08 -1.27042e-29 4.81376e-07 -5.50084e-29 4.81344e-07)
(4.28041e-07 1.88077e-08 -5.60627e-28 4.28069e-07 4.64228e-28 4.28054e-07)
(3.82641e-07 1.615e-08 9.91624e-28 3.82644e-07 -4.08338e-28 3.82642e-07)
(3.44716e-07 1.40403e-08 -7.47847e-28 3.447e-07 4.48632e-28 3.44707e-07)
(3.13543e-07 1.23914e-08 -7.60026e-28 3.13513e-07 8.69079e-29 3.13527e-07)
(2.88566e-07 1.11388e-08 7.47646e-29 2.88525e-07 1.13529e-28 2.88545e-07)
(2.68767e-07 1.01983e-08 -1.64386e-28 2.68718e-07 4.34136e-29 2.68742e-07)
(2.53375e-07 9.50837e-09 9.58348e-29 2.5332e-07 -2.01021e-30 2.53347e-07)
(3.24729e-06 6.1771e-07 -8.15833e-28 3.24655e-06 -8.6539e-28 3.24691e-06)
(3.27732e-06 6.26623e-07 6.29337e-28 3.2765e-06 1.73204e-28 3.27691e-06)
(3.30451e-06 6.34611e-07 -4.34674e-28 3.30362e-06 4.29795e-28 3.30406e-06)
(3.32849e-06 6.41545e-07 -1.94486e-29 3.32756e-06 -1.99924e-27 3.32802e-06)
(3.34893e-06 6.47335e-07 -3.98562e-28 3.34797e-06 -5.86565e-27 3.34845e-06)
(3.36544e-06 6.51856e-07 7.14184e-27 3.36448e-06 7.50125e-27 3.36496e-06)
(3.37757e-06 6.54994e-07 -1.24572e-27 3.37665e-06 -2.18647e-27 3.37711e-06)
(3.38476e-06 6.56595e-07 -4.93952e-28 3.38391e-06 -7.50514e-28 3.38434e-06)
(3.38565e-06 6.56209e-07 -1.37792e-26 3.38491e-06 1.08198e-26 3.38529e-06)
(3.37895e-06 6.53432e-07 -1.37309e-26 3.37838e-06 5.87737e-27 3.37867e-06)
(3.36336e-06 6.47864e-07 9.31243e-27 3.36301e-06 1.06027e-26 3.36319e-06)
(3.33703e-06 6.38951e-07 -8.51695e-27 3.33695e-06 -1.15026e-26 3.337e-06)
(3.29793e-06 6.26072e-07 2.79321e-26 3.29819e-06 -1.03338e-26 3.29807e-06)
(3.2439e-06 6.08614e-07 -1.28851e-26 3.24454e-06 -7.06713e-27 3.24424e-06)
(3.17255e-06 5.85892e-07 -9.37953e-27 3.1736e-06 -9.81406e-27 3.1731e-06)
(3.08195e-06 5.5747e-07 -6.02617e-27 3.0834e-06 -9.52103e-27 3.0827e-06)
(2.97056e-06 5.23161e-07 -2.17679e-27 2.97238e-06 1.91097e-26 2.9715e-06)
(2.83775e-06 4.83155e-07 1.69435e-27 2.83984e-06 -1.50659e-27 2.83883e-06)
(2.68407e-06 4.38226e-07 -2.70983e-26 2.68633e-06 2.0206e-26 2.68524e-06)
(2.51194e-06 3.89805e-07 3.54718e-26 2.5142e-06 -8.46148e-27 2.51311e-06)
(2.32554e-06 3.39912e-07 7.67562e-28 2.32766e-06 -1.57839e-27 2.32664e-06)
(2.13058e-06 2.90846e-07 -1.29845e-27 2.13243e-06 -2.54528e-28 2.13154e-06)
(1.93382e-06 2.44834e-07 2.15174e-27 1.93533e-06 -3.68048e-28 1.93461e-06)
(1.74212e-06 2.03609e-07 -1.81831e-27 1.74326e-06 -7.35376e-27 1.74271e-06)
(1.56157e-06 1.68173e-07 1.46906e-27 1.56234e-06 1.44817e-28 1.56197e-06)
(1.3968e-06 1.38783e-07 -1.02171e-27 1.39727e-06 -2.32467e-29 1.39705e-06)
(1.2506e-06 1.15093e-07 1.33769e-26 1.25082e-06 -2.62321e-28 1.25072e-06)
(1.12394e-06 9.63948e-08 -1.32306e-26 1.12397e-06 -5.11814e-28 1.12396e-06)
(1.01649e-06 8.18806e-08 1.73039e-26 1.01637e-06 -5.44485e-28 1.01643e-06)
(9.26727e-07 7.07217e-08 3.9743e-27 9.26512e-07 6.07348e-28 9.2662e-07)
(8.52918e-07 6.22257e-08 1.00606e-26 8.52629e-07 -5.70451e-28 8.52773e-07)
(7.92765e-07 5.57701e-08 9.0373e-27 7.92422e-07 -1.34776e-28 7.92593e-07)
(7.45012e-07 5.0975e-08 -8.3597e-27 7.44629e-07 3.19836e-29 7.4482e-07)
(5.19109e-06 1.44371e-06 7.52217e-28 5.18818e-06 2.84906e-27 5.18964e-06)
(5.22896e-06 1.45845e-06 7.43113e-28 5.22566e-06 -1.54523e-27 5.22731e-06)
(5.26393e-06 1.47197e-06 1.3204e-27 5.26029e-06 1.95026e-26 5.26212e-06)
(5.2957e-06 1.48425e-06 -4.61258e-27 5.29175e-06 -1.16941e-28 5.29373e-06)
(5.32385e-06 1.49506e-06 -5.05288e-26 5.31966e-06 1.78182e-26 5.32176e-06)
(5.34794e-06 1.50432e-06 1.45358e-27 5.34358e-06 -5.36017e-26 5.34577e-06)
(5.36734e-06 1.51182e-06 -5.91935e-27 5.36288e-06 1.69614e-27 5.36512e-06)
(5.38136e-06 1.51732e-06 1.81383e-27 5.37689e-06 -3.23348e-26 5.37913e-06)
(5.38894e-06 1.5205e-06 4.95772e-26 5.38456e-06 2.81478e-26 5.38675e-06)
(5.38873e-06 1.5208e-06 4.03157e-26 5.3846e-06 2.64836e-26 5.38667e-06)
(5.37934e-06 1.51771e-06 -7.42367e-27 5.37557e-06 -8.0115e-26 5.37746e-06)
(5.3589e-06 1.51049e-06 -7.7796e-27 5.35566e-06 -3.36932e-26 5.35728e-06)
(5.32528e-06 1.49831e-06 -6.95819e-26 5.32271e-06 -4.80958e-26 5.32399e-06)
(5.2761e-06 1.4802e-06 1.29695e-26 5.27434e-06 2.76369e-26 5.27521e-06)
(5.20861e-06 1.45499e-06 -1.14358e-26 5.2078e-06 -3.17059e-26 5.2082e-06)
(5.1202e-06 1.42153e-06 -6.15323e-27 5.12039e-06 1.65146e-26 5.12029e-06)
(5.00827e-06 1.37862e-06 1.94816e-25 5.00949e-06 -1.12478e-25 5.00887e-06)
(4.87063e-06 1.32518e-06 -1.02694e-26 4.8728e-06 4.88402e-27 4.87171e-06)
(4.70573e-06 1.26052e-06 1.23484e-25 4.70868e-06 9.47614e-26 4.70721e-06)
(4.51332e-06 1.18452e-06 -1.01612e-25 4.51681e-06 -4.84181e-26 4.51509e-06)
(4.29475e-06 1.09789e-06 1.59184e-27 4.29845e-06 -5.40491e-27 4.29664e-06)
(4.05322e-06 1.00242e-06 -1.3275e-26 4.0568e-06 1.89139e-27 4.05507e-06)
(3.79414e-06 9.01004e-07 -2.44294e-27 3.79726e-06 2.71664e-26 3.79577e-06)
(3.52472e-06 7.9748e-07 -1.87953e-25 3.52715e-06 2.91338e-26 3.52602e-06)
(3.25353e-06 6.96182e-07 1.06466e-26 3.25512e-06 -3.02087e-27 3.25441e-06)
(2.9894e-06 6.01276e-07 -6.34173e-28 2.99014e-06 1.57615e-27 2.98985e-06)
(2.74016e-06 5.15937e-07 -4.27225e-26 2.74011e-06 -3.78514e-26 2.74021e-06)
(2.51161e-06 4.41995e-07 3.63314e-26 2.51091e-06 1.4411e-26 2.51133e-06)
(2.30739e-06 3.79915e-07 -6.23882e-26 2.30617e-06 -2.31063e-27 2.30683e-06)
(2.12848e-06 3.28965e-07 1.7164e-28 2.12688e-06 -1.6559e-27 2.12772e-06)
(1.97468e-06 2.87968e-07 -5.35855e-26 1.97279e-06 -3.38078e-27 1.97377e-06)
(1.84381e-06 2.55228e-07 -4.13604e-26 1.84173e-06 -1.35839e-27 1.84279e-06)
(1.73382e-06 2.2932e-07 4.28597e-26 1.73161e-06 1.70645e-28 1.73273e-06)
(6.38858e-06 2.03739e-06 7.70985e-28 6.38167e-06 1.32656e-26 6.38515e-06)
(6.42835e-06 2.05419e-06 2.56348e-27 6.4204e-06 -7.04951e-28 6.42439e-06)
(6.46562e-06 2.06991e-06 1.02298e-25 6.45668e-06 8.13792e-28 6.46117e-06)
(6.50006e-06 2.08457e-06 -1.39222e-28 6.49022e-06 2.83937e-27 6.49516e-06)
(6.53131e-06 2.0978e-06 8.62596e-26 6.52065e-06 4.57662e-26 6.526e-06)
(6.55891e-06 2.10963e-06 -2.09603e-25 6.54754e-06 9.61252e-26 6.55324e-06)
(6.58224e-06 2.11978e-06 3.07338e-28 6.57028e-06 5.37227e-26 6.57628e-06)
(6.60052e-06 2.12805e-06 -2.07313e-25 6.5881e-06 4.32101e-26 6.59433e-06)
(6.61308e-06 2.13414e-06 1.6533e-26 6.60031e-06 4.8182e-26 6.60671e-06)
(6.61875e-06 2.13766e-06 -2.04657e-26 6.60583e-06 4.53004e-26 6.61231e-06)
(6.61635e-06 2.1382e-06 -4.18282e-25 6.60345e-06 1.71212e-25 6.60992e-06)
(6.60436e-06 2.13503e-06 -3.99743e-25 6.59166e-06 7.30515e-26 6.59803e-06)
(6.58101e-06 2.12756e-06 7.97173e-27 6.56872e-06 2.0854e-25 6.57488e-06)
(6.5444e-06 2.11477e-06 1.63528e-26 6.53268e-06 1.42235e-25 6.53855e-06)
(6.49234e-06 2.09581e-06 -4.34671e-25 6.48138e-06 2.04968e-25 6.48687e-06)
(6.42269e-06 2.06956e-06 1.19907e-26 6.4126e-06 1.33389e-25 6.41764e-06)
(6.33332e-06 2.03491e-06 -1.09699e-24 6.3242e-06 -5.77774e-27 6.32875e-06)
(6.22239e-06 1.99093e-06 1.08056e-25 6.21425e-06 5.94782e-28 6.21829e-06)
(6.08843e-06 1.93659e-06 6.34271e-25 6.08122e-06 -2.60733e-25 6.08478e-06)
(5.93076e-06 1.87141e-06 2.92427e-26 5.92435e-06 -2.44842e-26 5.92749e-06)
(5.74969e-06 1.79537e-06 -3.56575e-26 5.74388e-06 2.67242e-28 5.74671e-06)
(5.54664e-06 1.70886e-06 5.40631e-27 5.54119e-06 -1.30547e-25 5.54383e-06)
(5.32441e-06 1.61317e-06 4.89256e-25 5.31906e-06 -1.69665e-25 5.32164e-06)
(5.08705e-06 1.51017e-06 4.50518e-25 5.08155e-06 9.20082e-26 5.08422e-06)
(4.83981e-06 1.40248e-06 -2.91793e-26 4.83393e-06 6.40556e-29 4.83681e-06)
(4.58858e-06 1.29315e-06 -4.76269e-27 4.58218e-06 -7.4139e-28 4.58535e-06)
(4.33942e-06 1.18529e-06 -7.33421e-25 4.33242e-06 6.10114e-26 4.33591e-06)
(4.0978e-06 1.08178e-06 7.84302e-26 4.0902e-06 -1.38871e-26 4.09401e-06)
(3.86846e-06 9.85037e-07 4.94478e-25 3.86031e-06 -4.70135e-27 3.86442e-06)
(3.65467e-06 8.96501e-07 5.6516e-26 3.64606e-06 -8.80544e-28 3.65041e-06)
(3.45897e-06 8.17279e-07 -2.65065e-26 3.45e-06 9.27362e-27 3.45453e-06)
(3.28198e-06 7.47335e-07 -2.39067e-26 3.27279e-06 3.93895e-27 3.27744e-06)
(3.12434e-06 6.86606e-07 4.02217e-25 3.11502e-06 -1.51605e-27 3.11973e-06)
(7.03755e-06 2.42242e-06 8.21072e-26 7.02362e-06 7.72465e-28 7.0306e-06)
(7.07709e-06 2.43989e-06 -1.72293e-27 7.06113e-06 -2.11827e-27 7.06913e-06)
(7.11443e-06 2.45645e-06 1.42935e-26 7.09648e-06 -8.59745e-26 7.10547e-06)
(7.14896e-06 2.47177e-06 2.71403e-31 7.12915e-06 2.07439e-27 7.13907e-06)
(7.18055e-06 2.48602e-06 1.21091e-26 7.15902e-06 -4.56875e-26 7.1698e-06)
(7.20862e-06 2.49871e-06 6.42312e-25 7.18548e-06 3.86333e-26 7.19707e-06)
(7.23263e-06 2.50987e-06 3.26231e-25 7.20801e-06 -6.37714e-26 7.22033e-06)
(7.25182e-06 2.51916e-06 3.07859e-25 7.22588e-06 1.01313e-25 7.23887e-06)
(7.26554e-06 2.52621e-06 6.66121e-25 7.23842e-06 -1.17601e-25 7.252e-06)
(7.27291e-06 2.53089e-06 6.29032e-25 7.24478e-06 -8.96455e-26 7.25887e-06)
(7.27293e-06 2.53268e-06 1.28784e-24 7.24396e-06 -1.39764e-25 7.25847e-06)
(7.26427e-06 2.5311e-06 5.48477e-25 7.23464e-06 1.57207e-25 7.24947e-06)
(7.24556e-06 2.52555e-06 1.29012e-24 7.21548e-06 -1.7688e-25 7.23053e-06)
(7.21515e-06 2.515e-06 1.30664e-24 7.18481e-06 -1.753e-25 7.2e-06)
(7.17153e-06 2.49888e-06 1.79842e-24 7.1411e-06 -1.78273e-25 7.15633e-06)
(7.11297e-06 2.47614e-06 1.20224e-24 7.08261e-06 -1.55131e-25 7.0978e-06)
(7.03799e-06 2.44576e-06 1.05046e-24 7.00786e-06 4.98846e-25 7.02293e-06)
(6.94537e-06 2.40715e-06 -1.04271e-25 6.91556e-06 -2.62481e-26 6.93047e-06)
(6.83415e-06 2.35934e-06 -2.03275e-24 6.80478e-06 -6.539e-26 6.81947e-06)
(6.70418e-06 2.30212e-06 -1.03177e-24 6.6753e-06 -1.28854e-25 6.68973e-06)
(6.55594e-06 2.23557e-06 -8.03782e-27 6.5276e-06 -1.7749e-25 6.54175e-06)
(6.39067e-06 2.16002e-06 -1.97448e-24 6.36291e-06 3.25579e-25 6.37675e-06)
(6.2106e-06 2.07661e-06 -2.61804e-24 6.18342e-06 1.81037e-25 6.19696e-06)
(6.01871e-06 1.9869e-06 1.19078e-25 5.99208e-06 -1.08124e-25 6.00533e-06)
(5.81855e-06 1.89286e-06 9.23169e-26 5.79242e-06 1.21154e-25 5.80541e-06)
(5.614e-06 1.79652e-06 6.03148e-27 5.5883e-06 -5.94736e-27 5.60106e-06)
(5.40888e-06 1.70003e-06 1.11326e-24 5.38351e-06 1.18294e-25 5.3961e-06)
(5.20659e-06 1.6052e-06 -9.4368e-27 5.18149e-06 -6.66899e-26 5.19395e-06)
(5.01017e-06 1.51358e-06 -1.02646e-24 4.98526e-06 -5.88568e-26 4.99763e-06)
(4.82182e-06 1.42625e-06 -6.10402e-26 4.79714e-06 -4.70509e-27 4.80941e-06)
(4.64366e-06 1.34414e-06 4.63365e-30 4.61917e-06 3.61586e-27 4.63135e-06)
(4.47659e-06 1.2677e-06 1.12088e-25 4.4524e-06 -1.72835e-26 4.46445e-06)
(4.32187e-06 1.19734e-06 -8.33798e-25 4.29801e-06 -1.1864e-27 4.30991e-06)
(7.37264e-06 2.66958e-06 7.59282e-27 7.34749e-06 -4.92195e-26 7.36007e-06)
(7.41047e-06 2.68707e-06 -1.79726e-26 7.38204e-06 -1.48836e-28 7.39627e-06)
(7.44588e-06 2.70353e-06 -2.16995e-25 7.41424e-06 6.9875e-26 7.43007e-06)
(7.47841e-06 2.71863e-06 1.83551e-26 7.44371e-06 -7.01418e-26 7.46107e-06)
(7.50787e-06 2.73254e-06 2.05333e-26 7.47024e-06 2.36238e-28 7.48907e-06)
(7.53368e-06 2.745e-06 -4.69704e-25 7.49325e-06 -3.5769e-25 7.51347e-06)
(7.55534e-06 2.75582e-06 -4.80001e-25 7.51226e-06 -2.22761e-25 7.5338e-06)
(7.57217e-06 2.76474e-06 4.98823e-26 7.52661e-06 -1.10456e-25 7.5494e-06)
(7.58342e-06 2.77131e-06 -9.22469e-25 7.53552e-06 7.6161e-26 7.55947e-06)
(7.58835e-06 2.77524e-06 -8.149e-25 7.53831e-06 -1.69653e-25 7.56333e-06)
(7.58607e-06 2.77644e-06 -2.63923e-24 7.53405e-06 -3.61574e-25 7.56007e-06)
(7.57547e-06 2.77409e-06 1.27138e-26 7.5216e-06 -1.47901e-25 7.54853e-06)
(7.55534e-06 2.76763e-06 -1.65875e-24 7.49986e-06 -2.98622e-25 7.5276e-06)
(7.52438e-06 2.75648e-06 -1.62924e-24 7.4675e-06 -3.28416e-25 7.49593e-06)
(7.48152e-06 2.73998e-06 -3.28737e-24 7.42344e-06 -2.14693e-25 7.45247e-06)
(7.42531e-06 2.71695e-06 -1.49327e-24 7.36631e-06 -2.68244e-25 7.3958e-06)
(7.35485e-06 2.68686e-06 1.64524e-24 7.29517e-06 -3.6624e-25 7.325e-06)
(7.26945e-06 2.64914e-06 -8.85256e-28 7.20938e-06 3.11431e-25 7.2394e-06)
(7.16882e-06 2.60323e-06 1.39796e-24 7.10868e-06 6.65776e-25 7.13873e-06)
(7.05319e-06 2.54906e-06 -1.62536e-24 6.99327e-06 6.80551e-25 7.0232e-06)
(6.92337e-06 2.4868e-06 -2.60865e-24 6.86403e-06 2.31941e-25 6.89367e-06)
(6.78092e-06 2.41716e-06 5.07477e-24 6.72248e-06 9.67961e-26 6.75167e-06)
(6.62786e-06 2.34113e-06 4.9008e-24 6.57058e-06 2.18093e-25 6.59918e-06)
(6.46676e-06 2.2603e-06 -1.73864e-26 6.41086e-06 -2.35423e-26 6.43877e-06)
(6.30037e-06 2.17614e-06 2.45894e-24 6.24597e-06 -1.25486e-25 6.27312e-06)
(6.13145e-06 2.09038e-06 -1.43254e-25 6.0786e-06 7.93622e-28 6.10498e-06)
(5.96261e-06 2.00453e-06 -6.87157e-27 5.91127e-06 -2.92686e-25 5.93689e-06)
(5.79601e-06 1.91981e-06 -1.96764e-24 5.74613e-06 -6.77481e-26 5.77101e-06)
(5.63356e-06 1.83737e-06 -1.05839e-25 5.58504e-06 7.66554e-26 5.60923e-06)
(5.47659e-06 1.758e-06 1.81099e-28 5.42945e-06 6.87695e-26 5.45296e-06)
(5.32647e-06 1.68232e-06 9.82023e-26 5.2806e-06 2.52704e-27 5.30347e-06)
(5.18385e-06 1.61065e-06 -3.19962e-24 5.13933e-06 2.67729e-26 5.16153e-06)
(5.04967e-06 1.54337e-06 -2.9634e-24 5.00648e-06 1.18518e-26 5.02801e-06)
(7.52799e-06 2.82993e-06 -1.42426e-25 7.48693e-06 2.07917e-26 7.50747e-06)
(7.56222e-06 2.84644e-06 1.02724e-26 7.51644e-06 -8.23291e-26 7.53933e-06)
(7.59373e-06 2.86178e-06 5.56436e-25 7.54335e-06 -2.35196e-26 7.56853e-06)
(7.62214e-06 2.87596e-06 -5.71034e-25 7.56733e-06 7.44922e-26 7.59473e-06)
(7.64707e-06 2.88867e-06 -8.89528e-27 7.58799e-06 1.47612e-25 7.61753e-06)
(7.66801e-06 2.89967e-06 -1.27637e-24 7.60479e-06 2.60879e-25 7.6364e-06)
(7.68447e-06 2.90892e-06 -1.02571e-24 7.61728e-06 2.5506e-25 7.65087e-06)
(7.69577e-06 2.91591e-06 -1.01368e-25 7.62478e-06 -3.01881e-25 7.66027e-06)
(7.70122e-06 2.92058e-06 2.40976e-24 7.62665e-06 -7.02021e-26 7.66393e-06)
(7.70006e-06 2.92203e-06 -2.79097e-26 7.62208e-06 4.32285e-25 7.66107e-06)
(7.69148e-06 2.9205e-06 -1.35601e-25 7.61028e-06 5.04656e-25 7.65087e-06)
(7.67457e-06 2.91537e-06 1.41417e-27 7.59037e-06 -1.49545e-26 7.63247e-06)
(7.64823e-06 2.90573e-06 1.33549e-25 7.56126e-06 3.32328e-25 7.60473e-06)
(7.61156e-06 2.89136e-06 -2.45646e-25 7.52208e-06 2.57039e-25 7.5668e-06)
(7.56355e-06 2.8713e-06 2.15236e-24 7.47194e-06 1.33732e-25 7.51773e-06)
(7.50343e-06 2.84499e-06 -1.65226e-25 7.41007e-06 -1.3752e-25 7.45673e-06)
(7.43063e-06 2.81204e-06 -1.64298e-24 7.33596e-06 1.31869e-25 7.38327e-06)
(7.34495e-06 2.77177e-06 3.9269e-24 7.2495e-06 -3.1831e-25 7.2972e-06)
(7.24651e-06 2.72417e-06 3.9074e-24 7.15087e-06 -7.9437e-25 7.19867e-06)
(7.13621e-06 2.66943e-06 7.26319e-24 7.04093e-06 -7.08787e-26 7.08853e-06)
(7.01504e-06 2.60779e-06 3.5288e-24 6.92076e-06 5.67013e-25 6.96787e-06)
(6.88484e-06 2.54035e-06 -3.50625e-24 6.79215e-06 -5.86109e-25 6.83847e-06)
(6.74762e-06 2.46825e-06 -3.09925e-24 6.65699e-06 -1.16371e-25 6.70227e-06)
(6.60555e-06 2.39267e-06 -1.90777e-25 6.51736e-06 -3.22682e-28 6.56142e-06)
(6.46095e-06 2.31507e-06 -2.67473e-24 6.37547e-06 -2.08502e-25 6.41817e-06)
(6.3159e-06 2.23686e-06 -7.44028e-27 6.23322e-06 1.7638e-26 6.27452e-06)
(6.17219e-06 2.15908e-06 -5.64854e-24 6.09234e-06 -2.07132e-26 6.13223e-06)
(6.03129e-06 2.08267e-06 -2.71413e-24 5.95426e-06 2.79481e-25 5.99275e-06)
(5.89447e-06 2.00842e-06 1.71723e-25 5.82012e-06 4.71408e-27 5.85725e-06)
(5.76249e-06 1.93671e-06 4.376e-24 5.69085e-06 -9.04022e-26 5.72663e-06)
(5.63626e-06 1.86825e-06 2.84805e-25 5.56717e-06 -1.06166e-26 5.60167e-06)
(5.51615e-06 1.80308e-06 4.00119e-24 5.44971e-06 3.96703e-27 5.48289e-06)
(5.4028e-06 1.74156e-06 4.40462e-24 5.33898e-06 -8.23921e-27 5.37085e-06)
(7.5718e-06 2.93156e-06 1.73929e-25 7.51008e-06 8.50601e-27 7.54093e-06)
(7.6006e-06 2.94642e-06 -7.43976e-25 7.53272e-06 -4.07581e-27 7.56667e-06)
(7.6263e-06 2.95985e-06 -6.76568e-25 7.55238e-06 -1.10707e-25 7.58933e-06)
(7.64836e-06 2.97167e-06 7.18137e-25 7.56859e-06 1.07323e-25 7.60847e-06)
(7.6665e-06 2.98204e-06 1.40993e-24 7.58109e-06 1.71306e-26 7.6238e-06)
(7.6802e-06 2.99037e-06 1.41087e-24 7.58929e-06 2.26451e-25 7.63473e-06)
(7.6889e-06 2.99655e-06 1.30848e-24 7.59272e-06 4.95818e-25 7.6408e-06)
(7.69195e-06 3.00025e-06 -2.87716e-24 7.59073e-06 6.1067e-25 7.64133e-06)
(7.68876e-06 3.00112e-06 -2.60546e-24 7.58272e-06 -4.09964e-25 7.63573e-06)
(7.67856e-06 2.99895e-06 2.80503e-24 7.56797e-06 -2.69933e-25 7.62327e-06)
(7.66067e-06 2.99288e-06 -1.68579e-25 7.54577e-06 5.72622e-25 7.6032e-06)
(7.63426e-06 2.98264e-06 -1.62335e-25 7.51538e-06 -1.6917e-26 7.5748e-06)
(7.59846e-06 2.96798e-06 3.23594e-25 7.47596e-06 -3.2293e-26 7.5372e-06)
(7.5526e-06 2.94818e-06 -3.6711e-25 7.42689e-06 6.30022e-26 7.48973e-06)
(7.49608e-06 2.9227e-06 -5.18026e-24 7.36767e-06 -3.15126e-25 7.43187e-06)
(7.42842e-06 2.89122e-06 -4.94948e-24 7.29789e-06 4.33262e-25 7.36313e-06)
(7.34966e-06 2.85329e-06 5.06831e-24 7.21772e-06 -2.06729e-25 7.28367e-06)
(7.25991e-06 2.80866e-06 -4.63387e-24 7.12733e-06 -6.42322e-26 7.1936e-06)
(7.15991e-06 2.75766e-06 -9.06253e-24 7.02748e-06 2.17907e-25 7.09367e-06)
(7.05074e-06 2.70079e-06 -4.18696e-24 6.91933e-06 -1.55522e-25 6.985e-06)
(6.93388e-06 2.63843e-06 4.41145e-24 6.80431e-06 -6.02636e-25 6.86907e-06)
(6.81112e-06 2.57197e-06 -2.37846e-25 6.68413e-06 7.82222e-25 6.7476e-06)
(6.68444e-06 2.50233e-06 8.46115e-24 6.56063e-06 -1.29599e-25 6.6225e-06)
(6.55575e-06 2.43081e-06 -4.12454e-26 6.43564e-06 -3.59421e-25 6.49567e-06)
(6.42693e-06 2.35865e-06 1.34505e-27 6.3108e-06 1.66675e-25 6.36883e-06)
(6.29952e-06 2.2867e-06 2.24187e-25 6.18753e-06 3.25123e-26 6.24349e-06)
(6.17482e-06 2.2159e-06 -1.04821e-24 6.067e-06 4.73402e-25 6.12088e-06)
(6.0538e-06 2.14705e-06 6.95202e-24 5.95013e-06 1.2508e-25 6.00194e-06)
(5.93727e-06 2.08048e-06 -2.49843e-26 5.83764e-06 1.19507e-25 5.88743e-06)
(5.82569e-06 2.0166e-06 -5.74272e-24 5.73013e-06 -1.02379e-25 5.77789e-06)
(5.71964e-06 1.95571e-06 -7.65591e-25 5.62796e-06 5.82554e-26 5.67377e-06)
(5.61925e-06 1.89807e-06 -5.79283e-24 5.5316e-06 -2.17234e-26 5.57541e-06)
(5.52499e-06 1.84364e-06 4.24452e-28 5.4413e-06 -4.64797e-27 5.48311e-06)
(7.53972e-06 2.98875e-06 -1.99525e-25 7.45309e-06 -3.10245e-26 7.4964e-06)
(7.56145e-06 3.0009e-06 -3.24043e-26 7.46722e-06 2.17507e-25 7.51433e-06)
(7.57948e-06 3.01134e-06 -3.66211e-29 7.47785e-06 -7.61342e-26 7.52867e-06)
(7.59347e-06 3.0199e-06 1.01515e-27 7.48466e-06 -2.8932e-25 7.53907e-06)
(7.60289e-06 3.02654e-06 1.73455e-25 7.48712e-06 -3.8114e-25 7.545e-06)
(7.60736e-06 3.031e-06 3.43815e-26 7.4849e-06 -2.12986e-25 7.54613e-06)
(7.60633e-06 3.03275e-06 3.37571e-24 7.47742e-06 -5.24002e-25 7.54187e-06)
(7.5992e-06 3.03168e-06 6.27856e-24 7.46415e-06 8.99345e-26 7.53167e-06)
(7.58538e-06 3.02748e-06 -2.94698e-25 7.44451e-06 3.76536e-25 7.51493e-06)
(7.56425e-06 3.01972e-06 -3.00226e-24 7.41792e-06 -3.61463e-25 7.49107e-06)
(7.53507e-06 3.0079e-06 6.60737e-24 7.38374e-06 -2.59225e-25 7.4594e-06)
(7.49742e-06 2.99144e-06 -2.5305e-25 7.34152e-06 1.86175e-26 7.41947e-06)
(7.45073e-06 2.9701e-06 -1.8374e-25 7.29077e-06 -3.83022e-26 7.37073e-06)
(7.39444e-06 2.94373e-06 3.70902e-25 7.23105e-06 5.09186e-25 7.31273e-06)
(7.32835e-06 2.91187e-06 -4.05778e-25 7.16222e-06 9.8732e-25 7.24527e-06)
(7.25252e-06 2.87439e-06 5.85959e-24 7.08446e-06 5.16942e-25 7.16847e-06)
(7.1672e-06 2.83087e-06 -6.12856e-24 6.99817e-06 -4.75446e-25 7.08267e-06)
(7.07314e-06 2.78185e-06 6.01556e-24 6.9041e-06 6.5152e-26 6.9886e-06)
(6.9714e-06 2.72764e-06 1.06321e-23 6.80332e-06 5.11931e-25 6.88733e-06)
(6.86334e-06 2.66886e-06 1.04936e-23 6.69725e-06 -2.41746e-25 6.78027e-06)
(6.75062e-06 2.60655e-06 -4.92457e-24 6.58743e-06 -3.41422e-25 6.669e-06)
(6.63492e-06 2.5416e-06 1.0027e-23 6.47545e-06 -4.47445e-25 6.55516e-06)
(6.51806e-06 2.47521e-06 -9.11147e-24 6.36298e-06 -1.00552e-24 6.44049e-06)
(6.40166e-06 2.40833e-06 -9.77269e-24 6.25145e-06 3.77129e-25 6.32653e-06)
(6.2871e-06 2.34198e-06 -5.27569e-25 6.14211e-06 2.02012e-26 6.21458e-06)
(6.17552e-06 2.2769e-06 1.12866e-24 6.03592e-06 -2.86439e-26 6.10571e-06)
(6.06786e-06 2.21373e-06 7.32895e-24 5.93364e-06 2.15589e-26 6.00073e-06)
(5.96465e-06 2.15277e-06 1.04811e-24 5.83584e-06 -2.56339e-25 5.90023e-06)
(5.86642e-06 2.0945e-06 7.91539e-24 5.7429e-06 -1.60813e-25 5.80463e-06)
(5.77333e-06 2.03913e-06 -5.15367e-27 5.65516e-06 1.28655e-25 5.71423e-06)
(5.68576e-06 1.98668e-06 8.10974e-24 5.57277e-06 -2.18223e-25 5.62924e-06)
(5.60364e-06 1.93734e-06 -3.6705e-25 5.496e-06 8.0548e-26 5.54981e-06)
(5.52721e-06 1.89121e-06 2.41968e-27 5.42491e-06 1.06012e-28 5.47604e-06)
(7.45296e-06 3.00886e-06 1.12461e-26 7.33784e-06 2.90881e-26 7.3954e-06)
(7.46629e-06 3.01708e-06 9.76108e-25 7.34224e-06 3.61593e-27 7.40427e-06)
(7.4754e-06 3.02345e-06 -2.02536e-24 7.34271e-06 1.76406e-25 7.40907e-06)
(7.48002e-06 3.02788e-06 -1.91906e-24 7.33893e-06 1.83416e-25 7.40947e-06)
(7.47952e-06 3.02963e-06 -1.81512e-24 7.33038e-06 -1.86628e-26 7.40493e-06)
(7.47363e-06 3.02899e-06 -1.90151e-26 7.31679e-06 1.08479e-26 7.3952e-06)
(7.46174e-06 3.02521e-06 -3.75665e-24 7.29759e-06 -7.59727e-25 7.37967e-06)
(7.44348e-06 3.01828e-06 -3.53044e-24 7.27239e-06 -4.53455e-25 7.35793e-06)
(7.41827e-06 3.00784e-06 1.47146e-25 7.24068e-06 4.25065e-26 7.32947e-06)
(7.38566e-06 2.99348e-06 -3.21011e-26 7.20209e-06 3.51742e-25 7.29387e-06)
(7.34515e-06 2.97484e-06 -3.44245e-24 7.15621e-06 -7.22733e-25 7.25067e-06)
(7.29637e-06 2.95187e-06 2.91622e-26 7.10271e-06 -5.13237e-25 7.19953e-06)
(7.23924e-06 2.92373e-06 5.38288e-26 7.04159e-06 3.70957e-27 7.1404e-06)
(7.17362e-06 2.89059e-06 6.89873e-24 6.97282e-06 -4.9453e-25 7.0732e-06)
(7.09949e-06 2.85258e-06 6.41881e-24 6.89642e-06 -2.58709e-27 6.99793e-06)
(7.01731e-06 2.80942e-06 -4.54716e-26 6.81298e-06 -1.1978e-25 6.91513e-06)
(6.92786e-06 2.76163e-06 3.58567e-25 6.72335e-06 5.61715e-25 6.8256e-06)
(6.83224e-06 2.70968e-06 -6.55379e-24 6.6286e-06 -4.78217e-25 6.7304e-06)
(6.73166e-06 2.654e-06 -5.65432e-24 6.53e-06 -8.25064e-25 6.6308e-06)
(6.62758e-06 2.59522e-06 -1.21242e-23 6.42895e-06 -1.51446e-25 6.52824e-06)
(6.52162e-06 2.53473e-06 1.41414e-26 6.32695e-06 3.4375e-25 6.42427e-06)
(6.41536e-06 2.47326e-06 -1.10224e-23 6.22546e-06 -6.23666e-25 6.32039e-06)
(6.31023e-06 2.41176e-06 -1.18302e-23 6.12571e-06 5.53074e-25 6.21795e-06)
(6.20743e-06 2.35114e-06 1.09731e-23 6.02883e-06 5.04971e-25 6.11813e-06)
(6.10805e-06 2.29196e-06 6.45535e-25 5.93564e-06 2.29451e-26 6.02183e-06)
(6.01275e-06 2.23482e-06 -6.75107e-25 5.84672e-06 -4.53845e-26 5.92972e-06)
(5.92205e-06 2.18025e-06 4.53956e-28 5.76249e-06 -2.71895e-25 5.84226e-06)
(5.83628e-06 2.12812e-06 -1.62332e-26 5.68322e-06 -3.2464e-26 5.75975e-06)
(5.7557e-06 2.07886e-06 -1.01462e-23 5.60905e-06 -1.68914e-25 5.68236e-06)
(5.68022e-06 2.03252e-06 -9.08642e-27 5.54012e-06 -2.07322e-25 5.61017e-06)
(5.61003e-06 1.98915e-06 -3.05837e-23 5.47637e-06 1.52497e-25 5.54319e-06)