/*--------------------------------*- C++ -*----------------------------------*\
  =========                 |
  \\      /  F ield         | OpenFOAM: The Open Source CFD Toolbox
   \\    /   O peration     | Website:  https://openfoam.org
    \\  /    A nd           | Version:  7
     \\/     M anipulation  |
\*---------------------------------------------------------------------------*/
FoamFile
{
    version     2.0;
    format      ascii;
    class       volSymmTensorField;
    location    "25000";
    object      TauDNS;
}
// * * * * * * * * * * * * * * * * * * * * * * * * * * * * * * * * * * * * * //

dimensions      [0 2 -2 0 0 0 0];

internalField   nonuniform List<symmTensor> 
2444
(
(6.57837e-07 7.36043e-09 0 1.25429e-09 0 2.71165e-07)
(6.53062e-07 7.1175e-09 0 1.22153e-09 0 2.65232e-07)
(6.48317e-07 6.91748e-09 0 1.1911e-09 0 2.59504e-07)
(6.4319e-07 6.69853e-09 0 1.15565e-09 0 2.53563e-07)
(6.38492e-07 6.46367e-09 0 1.11315e-09 0 2.46773e-07)
(6.34273e-07 6.2723e-09 0 1.0646e-09 0 2.4026e-07)
(6.29553e-07 6.10615e-09 0 1.01744e-09 0 2.34355e-07)
(6.2453e-07 5.92961e-09 0 9.78267e-10 0 2.29331e-07)
(6.19501e-07 5.76696e-09 0 9.478e-10 0 2.24376e-07)
(6.1408e-07 5.57774e-09 0 9.09638e-10 0 2.19214e-07)
(6.08815e-07 5.41216e-09 0 8.7284e-10 0 2.14399e-07)
(6.03598e-07 5.27514e-09 0 8.41354e-10 0 2.09616e-07)
(5.98625e-07 5.11832e-09 0 8.02238e-10 0 2.04855e-07)
(5.93584e-07 4.98482e-09 0 7.65662e-10 0 2.00422e-07)
(5.88875e-07 4.86682e-09 0 7.32132e-10 0 1.96239e-07)
(5.85162e-07 4.73788e-09 0 6.99564e-10 0 1.92519e-07)
(5.82319e-07 4.68231e-09 0 6.73867e-10 0 1.89644e-07)
(5.79072e-07 4.62513e-09 0 6.51448e-10 0 1.87111e-07)
(5.75851e-07 4.55088e-09 0 6.3049e-10 0 1.8422e-07)
(5.72823e-07 4.50198e-09 0 6.1134e-10 0 1.81276e-07)
(5.6993e-07 4.45516e-09 0 5.88443e-10 0 1.78487e-07)
(5.67534e-07 4.41291e-09 0 5.63851e-10 0 1.75839e-07)
(5.65639e-07 4.39298e-09 0 5.46928e-10 0 1.73798e-07)
(5.63958e-07 4.40366e-09 0 5.35629e-10 0 1.72382e-07)
(5.62022e-07 4.42266e-09 0 5.25249e-10 0 1.71015e-07)
(5.59983e-07 4.41677e-09 0 5.11419e-10 0 1.69779e-07)
(5.58162e-07 4.4359e-09 0 5.0254e-10 0 1.6901e-07)
(5.56382e-07 4.44947e-09 0 4.94794e-10 0 1.68679e-07)
(5.54766e-07 4.47159e-09 0 4.88216e-10 0 1.68416e-07)
(5.5294e-07 4.50217e-09 0 4.83599e-10 0 1.68359e-07)
(5.51254e-07 4.50556e-09 0 4.75632e-10 0 1.68513e-07)
(5.50098e-07 4.54132e-09 0 4.69078e-10 0 1.69024e-07)
(5.49108e-07 4.56912e-09 0 4.63246e-10 0 1.69372e-07)
(2.15322e-06 2.64813e-08 0 4.98931e-09 0 8.70886e-07)
(2.13792e-06 2.56297e-08 0 4.86161e-09 0 8.51931e-07)
(2.12271e-06 2.49087e-08 0 4.73368e-09 0 8.3349e-07)
(2.10651e-06 2.41602e-08 0 4.60042e-09 0 8.14606e-07)
(2.09158e-06 2.33252e-08 0 4.42626e-09 0 7.92835e-07)
(2.07817e-06 2.26559e-08 0 4.2398e-09 0 7.72088e-07)
(2.06313e-06 2.20641e-08 0 4.05246e-09 0 7.53218e-07)
(2.04711e-06 2.145e-08 0 3.90039e-09 0 7.37173e-07)
(2.0309e-06 2.08647e-08 0 3.77247e-09 0 7.2127e-07)
(2.00543e-06 1.99708e-08 0 3.55907e-09 0 7.03002e-07)
(1.98866e-06 1.9405e-08 0 3.41878e-09 0 6.8769e-07)
(1.97196e-06 1.89215e-08 0 3.29317e-09 0 6.72417e-07)
(1.95606e-06 1.83784e-08 0 3.14653e-09 0 6.57297e-07)
(1.93991e-06 1.79046e-08 0 3.00156e-09 0 6.43151e-07)
(1.91694e-06 1.72951e-08 0 2.82291e-09 0 6.28234e-07)
(1.9051e-06 1.68568e-08 0 2.70176e-09 0 6.16473e-07)
(1.89591e-06 1.66526e-08 0 2.5995e-09 0 6.07337e-07)
(1.87764e-06 1.62596e-08 0 2.46776e-09 0 5.97697e-07)
(1.86731e-06 1.60073e-08 0 2.38905e-09 0 5.88532e-07)
(1.84987e-06 1.56525e-08 0 2.27639e-09 0 5.77685e-07)
(1.84061e-06 1.54941e-08 0 2.19208e-09 0 5.68875e-07)
(1.82518e-06 1.51652e-08 0 2.06155e-09 0 5.58975e-07)
(1.81911e-06 1.51005e-08 0 2.00083e-09 0 5.52548e-07)
(1.80603e-06 1.49465e-08 0 1.92181e-09 0 5.4657e-07)
(1.79219e-06 1.48207e-08 0 1.84755e-09 0 5.40759e-07)
(1.78569e-06 1.48045e-08 0 1.79956e-09 0 5.36902e-07)
(1.77228e-06 1.46788e-08 0 1.73256e-09 0 5.32994e-07)
(1.75903e-06 1.45357e-08 0 1.67051e-09 0 5.30454e-07)
(1.74633e-06 1.44169e-08 0 1.6128e-09 0 5.2812e-07)
(1.74059e-06 1.45149e-08 0 1.59751e-09 0 5.27963e-07)
(1.72775e-06 1.43353e-08 0 1.53693e-09 0 5.26914e-07)
(1.71659e-06 1.42547e-08 0 1.48152e-09 0 5.2696e-07)
(1.70773e-06 1.42099e-08 0 1.44071e-09 0 5.26746e-07)
(6.41829e-06 1.74394e-07 0 4.97759e-08 0 1.98786e-06)
(6.38023e-06 1.69113e-07 0 4.82952e-08 0 1.94949e-06)
(6.34622e-06 1.64175e-07 0 4.70643e-08 0 1.90955e-06)
(6.31538e-06 1.60036e-07 0 4.57913e-08 0 1.86951e-06)
(6.27816e-06 1.55561e-07 0 4.43884e-08 0 1.82809e-06)
(6.25226e-06 1.51091e-07 0 4.27366e-08 0 1.78395e-06)
(6.21872e-06 1.47024e-07 0 4.09688e-08 0 1.74093e-06)
(6.18995e-06 1.43528e-07 0 3.92042e-08 0 1.70283e-06)
(6.1484e-06 1.39836e-07 0 3.76602e-08 0 1.66667e-06)
(6.1127e-06 1.36497e-07 0 3.63892e-08 0 1.63416e-06)
(6.06902e-06 1.32522e-07 0 3.49738e-08 0 1.60022e-06)
(6.02648e-06 1.29353e-07 0 3.35584e-08 0 1.56769e-06)
(5.98134e-06 1.26201e-07 0 3.21893e-08 0 1.53381e-06)
(5.93825e-06 1.22936e-07 0 3.08406e-08 0 1.50315e-06)
(5.89664e-06 1.20066e-07 0 2.94774e-08 0 1.47417e-06)
(5.85668e-06 1.17601e-07 0 2.82277e-08 0 1.44777e-06)
(5.82185e-06 1.15027e-07 0 2.70223e-08 0 1.42471e-06)
(5.78299e-06 1.13213e-07 0 2.59229e-08 0 1.40472e-06)
(5.75097e-06 1.11897e-07 0 2.50664e-08 0 1.38813e-06)
(5.71005e-06 1.10198e-07 0 2.42249e-08 0 1.36777e-06)
(5.66998e-06 1.08833e-07 0 2.34287e-08 0 1.34772e-06)
(5.63126e-06 1.07605e-07 0 2.25443e-08 0 1.32879e-06)
(5.59668e-06 1.06609e-07 0 2.16804e-08 0 1.31148e-06)
(5.56483e-06 1.05973e-07 0 2.10313e-08 0 1.29735e-06)
(5.52562e-06 1.05468e-07 0 2.04907e-08 0 1.28519e-06)
(5.49333e-06 1.05377e-07 0 2.00525e-08 0 1.27547e-06)
(5.45278e-06 1.04946e-07 0 1.95136e-08 0 1.26616e-06)
(5.41442e-06 1.04769e-07 0 1.91054e-08 0 1.26016e-06)
(5.38272e-06 1.04903e-07 0 1.88047e-08 0 1.25775e-06)
(5.33639e-06 1.04608e-07 0 1.84171e-08 0 1.25338e-06)
(5.29806e-06 1.04626e-07 0 1.81368e-08 0 1.2519e-06)
(5.26281e-06 1.0453e-07 0 1.78218e-08 0 1.25156e-06)
(5.22123e-06 1.0456e-07 0 1.75083e-08 0 1.25091e-06)
(1.17529e-05 4.46365e-07 0 1.47096e-07 0 3.10316e-06)
(1.17269e-05 4.36116e-07 0 1.43043e-07 0 3.04908e-06)
(1.169e-05 4.24343e-07 0 1.38943e-07 0 2.98804e-06)
(1.16681e-05 4.1482e-07 0 1.35066e-07 0 2.93048e-06)
(1.16439e-05 4.052e-07 0 1.30897e-07 0 2.87139e-06)
(1.16341e-05 3.95869e-07 0 1.26205e-07 0 2.80853e-06)
(1.16068e-05 3.87087e-07 0 1.21463e-07 0 2.74891e-06)
(1.15742e-05 3.78722e-07 0 1.16361e-07 0 2.69388e-06)
(1.15216e-05 3.70377e-07 0 1.11683e-07 0 2.64081e-06)
(1.14754e-05 3.62726e-07 0 1.07849e-07 0 2.59401e-06)
(1.14194e-05 3.54013e-07 0 1.03804e-07 0 2.5466e-06)
(1.13616e-05 3.46485e-07 0 9.96431e-08 0 2.49929e-06)
(1.1299e-05 3.39401e-07 0 9.55943e-08 0 2.45144e-06)
(1.1234e-05 3.31748e-07 0 9.16098e-08 0 2.40741e-06)
(1.11709e-05 3.25206e-07 0 8.79576e-08 0 2.36922e-06)
(1.1099e-05 3.18827e-07 0 8.41203e-08 0 2.33193e-06)
(1.10323e-05 3.12776e-07 0 8.06067e-08 0 2.30052e-06)
(1.0967e-05 3.0834e-07 0 7.75203e-08 0 2.2742e-06)
(1.08987e-05 3.04646e-07 0 7.48947e-08 0 2.24968e-06)
(1.08152e-05 3.00505e-07 0 7.24061e-08 0 2.22112e-06)
(1.07295e-05 2.96719e-07 0 7.00353e-08 0 2.19377e-06)
(1.06435e-05 2.9333e-07 0 6.7422e-08 0 2.16893e-06)
(1.05545e-05 2.90078e-07 0 6.50308e-08 0 2.14546e-06)
(1.04683e-05 2.87637e-07 0 6.3076e-08 0 2.12493e-06)
(1.03809e-05 2.85799e-07 0 6.14208e-08 0 2.1086e-06)
(1.02909e-05 2.84319e-07 0 5.99328e-08 0 2.0946e-06)
(1.01935e-05 2.82256e-07 0 5.84347e-08 0 2.08308e-06)
(1.00959e-05 2.80644e-07 0 5.70509e-08 0 2.07625e-06)
(9.9991e-06 2.79472e-07 0 5.5921e-08 0 2.07187e-06)
(9.89466e-06 2.77755e-07 0 5.47494e-08 0 2.06765e-06)
(9.79282e-06 2.76322e-07 0 5.37141e-08 0 2.06527e-06)
(9.69248e-06 2.75093e-07 0 5.25939e-08 0 2.06489e-06)
(9.59589e-06 2.74176e-07 0 5.16292e-08 0 2.06448e-06)
(1.70495e-05 8.17014e-07 0 3.06586e-07 0 4.1295e-06)
(1.70806e-05 8.02588e-07 0 2.98248e-07 0 4.06352e-06)
(1.70878e-05 7.85568e-07 0 2.90117e-07 0 3.99226e-06)
(1.71003e-05 7.69012e-07 0 2.81312e-07 0 3.92097e-06)
(1.71222e-05 7.54035e-07 0 2.72385e-07 0 3.84871e-06)
(1.714e-05 7.39727e-07 0 2.63208e-07 0 3.77223e-06)
(1.71394e-05 7.25337e-07 0 2.53408e-07 0 3.69964e-06)
(1.71262e-05 7.11752e-07 0 2.43492e-07 0 3.63483e-06)
(1.70993e-05 6.99153e-07 0 2.34255e-07 0 3.57322e-06)
(1.70688e-05 6.86103e-07 0 2.25729e-07 0 3.51674e-06)
(1.7025e-05 6.72861e-07 0 2.17522e-07 0 3.46093e-06)
(1.69738e-05 6.60818e-07 0 2.09325e-07 0 3.4047e-06)
(1.69027e-05 6.49003e-07 0 2.00946e-07 0 3.34733e-06)
(1.68319e-05 6.37192e-07 0 1.93152e-07 0 3.2967e-06)
(1.67387e-05 6.24743e-07 0 1.85083e-07 0 3.25064e-06)
(1.66544e-05 6.14538e-07 0 1.77734e-07 0 3.2108e-06)
(1.65624e-05 6.04463e-07 0 1.70632e-07 0 3.17582e-06)
(1.64575e-05 5.96014e-07 0 1.64316e-07 0 3.14392e-06)
(1.63523e-05 5.8931e-07 0 1.58884e-07 0 3.11448e-06)
(1.62167e-05 5.81828e-07 0 1.53613e-07 0 3.08135e-06)
(1.60817e-05 5.75048e-07 0 1.48794e-07 0 3.05229e-06)
(1.59287e-05 5.67848e-07 0 1.43488e-07 0 3.02455e-06)
(1.57872e-05 5.61756e-07 0 1.38903e-07 0 3.002e-06)
(1.56257e-05 5.55913e-07 0 1.34619e-07 0 2.97914e-06)
(1.54744e-05 5.51661e-07 0 1.31129e-07 0 2.96111e-06)
(1.53034e-05 5.46678e-07 0 1.27713e-07 0 2.94448e-06)
(1.51407e-05 5.42131e-07 0 1.24628e-07 0 2.93557e-06)
(1.49723e-05 5.37671e-07 0 1.21605e-07 0 2.93001e-06)
(1.47984e-05 5.33536e-07 0 1.18875e-07 0 2.92565e-06)
(1.4625e-05 5.29334e-07 0 1.1641e-07 0 2.9241e-06)
(1.44499e-05 5.25252e-07 0 1.1399e-07 0 2.92277e-06)
(1.42797e-05 5.21573e-07 0 1.11563e-07 0 2.9224e-06)
(1.41127e-05 5.18424e-07 0 1.09336e-07 0 2.92188e-06)
(2.13136e-05 1.2235e-06 0 5.21182e-07 0 5.01659e-06)
(2.14181e-05 1.20644e-06 0 5.07289e-07 0 4.94216e-06)
(2.14993e-05 1.18593e-06 0 4.93212e-07 0 4.86616e-06)
(2.15741e-05 1.16494e-06 0 4.78436e-07 0 4.79051e-06)
(2.16463e-05 1.14544e-06 0 4.63032e-07 0 4.71084e-06)
(2.17045e-05 1.12664e-06 0 4.47721e-07 0 4.62737e-06)
(2.1747e-05 1.10864e-06 0 4.32681e-07 0 4.55044e-06)
(2.17693e-05 1.09024e-06 0 4.16563e-07 0 4.48052e-06)
(2.17767e-05 1.07317e-06 0 4.01102e-07 0 4.41529e-06)
(2.17662e-05 1.05558e-06 0 3.86781e-07 0 4.3549e-06)
(2.1747e-05 1.03899e-06 0 3.73272e-07 0 4.29522e-06)
(2.17061e-05 1.02277e-06 0 3.59489e-07 0 4.23355e-06)
(2.1646e-05 1.00741e-06 0 3.45822e-07 0 4.17489e-06)
(2.15603e-05 9.90736e-07 0 3.32576e-07 0 4.12105e-06)
(2.14624e-05 9.74431e-07 0 3.19763e-07 0 4.07516e-06)
(2.13519e-05 9.59298e-07 0 3.07648e-07 0 4.03428e-06)
(2.12348e-05 9.4553e-07 0 2.96176e-07 0 3.99861e-06)
(2.10962e-05 9.3345e-07 0 2.85728e-07 0 3.96583e-06)
(2.09377e-05 9.22837e-07 0 2.76623e-07 0 3.93294e-06)
(2.07578e-05 9.12581e-07 0 2.68158e-07 0 3.90218e-06)
(2.05606e-05 9.02017e-07 0 2.60079e-07 0 3.87407e-06)
(2.03498e-05 8.91062e-07 0 2.51504e-07 0 3.85065e-06)
(2.01329e-05 8.80532e-07 0 2.4381e-07 0 3.82942e-06)
(1.99137e-05 8.71513e-07 0 2.37144e-07 0 3.80983e-06)
(1.96838e-05 8.63179e-07 0 2.30989e-07 0 3.79194e-06)
(1.94505e-05 8.54638e-07 0 2.25309e-07 0 3.77829e-06)
(1.92156e-05 8.46387e-07 0 2.19979e-07 0 3.77177e-06)
(1.89736e-05 8.38294e-07 0 2.14662e-07 0 3.76929e-06)
(1.87311e-05 8.30735e-07 0 2.09781e-07 0 3.76815e-06)
(1.84907e-05 8.22986e-07 0 2.05515e-07 0 3.76801e-06)
(1.82558e-05 8.16296e-07 0 2.01471e-07 0 3.76958e-06)
(1.80168e-05 8.09823e-07 0 1.97336e-07 0 3.77069e-06)
(1.77868e-05 8.04123e-07 0 1.93475e-07 0 3.7708e-06)
(2.42142e-05 1.60989e-06 0 7.76105e-07 0 5.76311e-06)
(2.43874e-05 1.59184e-06 0 7.56359e-07 0 5.68465e-06)
(2.45287e-05 1.57e-06 0 7.36173e-07 0 5.60814e-06)
(2.46567e-05 1.54613e-06 0 7.14168e-07 0 5.53237e-06)
(2.47761e-05 1.52462e-06 0 6.91793e-07 0 5.45321e-06)
(2.48669e-05 1.50221e-06 0 6.69705e-07 0 5.37043e-06)
(2.4939e-05 1.47996e-06 0 6.47893e-07 0 5.2929e-06)
(2.49887e-05 1.45806e-06 0 6.25296e-07 0 5.22179e-06)
(2.50167e-05 1.43671e-06 0 6.03133e-07 0 5.15678e-06)
(2.50256e-05 1.41599e-06 0 5.8198e-07 0 5.09797e-06)
(2.50138e-05 1.39634e-06 0 5.62242e-07 0 5.03808e-06)
(2.49784e-05 1.37796e-06 0 5.4287e-07 0 4.97698e-06)
(2.4913e-05 1.35944e-06 0 5.23439e-07 0 4.92078e-06)
(2.4815e-05 1.33906e-06 0 5.04475e-07 0 4.87012e-06)
(2.46911e-05 1.31818e-06 0 4.85636e-07 0 4.82578e-06)
(2.45541e-05 1.29886e-06 0 4.68473e-07 0 4.78743e-06)
(2.43955e-05 1.28119e-06 0 4.5218e-07 0 4.75138e-06)
(2.42034e-05 1.2649e-06 0 4.37164e-07 0 4.71799e-06)
(2.39895e-05 1.2506e-06 0 4.24073e-07 0 4.68793e-06)
(2.37529e-05 1.23667e-06 0 4.11986e-07 0 4.66054e-06)
(2.34997e-05 1.22283e-06 0 4.00493e-07 0 4.63881e-06)
(2.32352e-05 1.20799e-06 0 3.88555e-07 0 4.62044e-06)
(2.29584e-05 1.19382e-06 0 3.77635e-07 0 4.60402e-06)
(2.26683e-05 1.18027e-06 0 3.67853e-07 0 4.58849e-06)
(2.2374e-05 1.16735e-06 0 3.58822e-07 0 4.57447e-06)
(2.20722e-05 1.15429e-06 0 3.50348e-07 0 4.56628e-06)
(2.17784e-05 1.14256e-06 0 3.42452e-07 0 4.56373e-06)
(2.1474e-05 1.13049e-06 0 3.34447e-07 0 4.564e-06)
(2.11726e-05 1.11889e-06 0 3.2708e-07 0 4.5657e-06)
(2.08742e-05 1.10765e-06 0 3.20813e-07 0 4.5683e-06)
(2.05841e-05 1.09804e-06 0 3.14985e-07 0 4.57212e-06)
(2.03003e-05 1.08876e-06 0 3.08928e-07 0 4.57397e-06)
(2.00172e-05 1.08016e-06 0 3.03316e-07 0 4.57519e-06)
(2.5775e-05 1.9356e-06 0 1.05453e-06 0 6.37353e-06)
(2.59838e-05 1.91656e-06 0 1.02866e-06 0 6.2955e-06)
(2.61595e-05 1.8934e-06 0 1.00195e-06 0 6.21966e-06)
(2.632e-05 1.86904e-06 0 9.73267e-07 0 6.14852e-06)
(2.64614e-05 1.84626e-06 0 9.43765e-07 0 6.07393e-06)
(2.65725e-05 1.82134e-06 0 9.14725e-07 0 5.9972e-06)
(2.66556e-05 1.79573e-06 0 8.86092e-07 0 5.92536e-06)
(2.67175e-05 1.77136e-06 0 8.5697e-07 0 5.85747e-06)
(2.67556e-05 1.74719e-06 0 8.28295e-07 0 5.79693e-06)
(2.67642e-05 1.72375e-06 0 8.00543e-07 0 5.74262e-06)
(2.67473e-05 1.7021e-06 0 7.74363e-07 0 5.68824e-06)
(2.6702e-05 1.6823e-06 0 7.48938e-07 0 5.63263e-06)
(2.66244e-05 1.66196e-06 0 7.23992e-07 0 5.58165e-06)
(2.65116e-05 1.63894e-06 0 6.99313e-07 0 5.53755e-06)
(2.6364e-05 1.61445e-06 0 6.74791e-07 0 5.49761e-06)
(2.61836e-05 1.5909e-06 0 6.52549e-07 0 5.46206e-06)
(2.59729e-05 1.56954e-06 0 6.31597e-07 0 5.42842e-06)
(2.57288e-05 1.54985e-06 0 6.12528e-07 0 5.39774e-06)
(2.54563e-05 1.53158e-06 0 5.9541e-07 0 5.37108e-06)
(2.51613e-05 1.51398e-06 0 5.79789e-07 0 5.35041e-06)
(2.4852e-05 1.49608e-06 0 5.64665e-07 0 5.33395e-06)
(2.45323e-05 1.4774e-06 0 5.49255e-07 0 5.31999e-06)
(2.42008e-05 1.45957e-06 0 5.35282e-07 0 5.30839e-06)
(2.38579e-05 1.44179e-06 0 5.22471e-07 0 5.29742e-06)
(2.35118e-05 1.42446e-06 0 5.10604e-07 0 5.28934e-06)
(2.31627e-05 1.40722e-06 0 4.99325e-07 0 5.2855e-06)
(2.281e-05 1.39103e-06 0 4.88241e-07 0 5.28634e-06)
(2.24654e-05 1.37533e-06 0 4.77667e-07 0 5.28923e-06)
(2.21228e-05 1.35991e-06 0 4.68075e-07 0 5.29339e-06)
(2.179e-05 1.34584e-06 0 4.59857e-07 0 5.29775e-06)
(2.14618e-05 1.33294e-06 0 4.52025e-07 0 5.3011e-06)
(2.11405e-05 1.32111e-06 0 4.44465e-07 0 5.30612e-06)
(2.08269e-05 1.30958e-06 0 4.37203e-07 0 5.30846e-06)
(2.63322e-05 2.1888e-06 0 1.33843e-06 0 6.87221e-06)
(2.65405e-05 2.16795e-06 0 1.30687e-06 0 6.79968e-06)
(2.67208e-05 2.14389e-06 0 1.27403e-06 0 6.72871e-06)
(2.68796e-05 2.11889e-06 0 1.23887e-06 0 6.66305e-06)
(2.70117e-05 2.09399e-06 0 1.20331e-06 0 6.59392e-06)
(2.7111e-05 2.0663e-06 0 1.16781e-06 0 6.52403e-06)
(2.71794e-05 2.0379e-06 0 1.13257e-06 0 6.4588e-06)
(2.72225e-05 2.0107e-06 0 1.09757e-06 0 6.39688e-06)
(2.72332e-05 1.98299e-06 0 1.06259e-06 0 6.34191e-06)
(2.72087e-05 1.9563e-06 0 1.02937e-06 0 6.29369e-06)
(2.71524e-05 1.93222e-06 0 9.97551e-07 0 6.24502e-06)
(2.70611e-05 1.91006e-06 0 9.6692e-07 0 6.1966e-06)
(2.69347e-05 1.88641e-06 0 9.37058e-07 0 6.14979e-06)
(2.6778e-05 1.85972e-06 0 9.07642e-07 0 6.11004e-06)
(2.65906e-05 1.83199e-06 0 8.78623e-07 0 6.07556e-06)
(2.63747e-05 1.80576e-06 0 8.52244e-07 0 6.0453e-06)
(2.61287e-05 1.78196e-06 0 8.27222e-07 0 6.01848e-06)
(2.58495e-05 1.76022e-06 0 8.04437e-07 0 5.99435e-06)
(2.5546e-05 1.74006e-06 0 7.83505e-07 0 5.97315e-06)
(2.52231e-05 1.72006e-06 0 7.64259e-07 0 5.95874e-06)
(2.48898e-05 1.70046e-06 0 7.46231e-07 0 5.94868e-06)
(2.45469e-05 1.68083e-06 0 7.28149e-07 0 5.94164e-06)
(2.41757e-05 1.65911e-06 0 7.11084e-07 0 5.93251e-06)
(2.37977e-05 1.63725e-06 0 6.9519e-07 0 5.92467e-06)
(2.34153e-05 1.61625e-06 0 6.80848e-07 0 5.92183e-06)
(2.30306e-05 1.59513e-06 0 6.67019e-07 0 5.92233e-06)
(2.26515e-05 1.5754e-06 0 6.53525e-07 0 5.92596e-06)
(2.22818e-05 1.55588e-06 0 6.40445e-07 0 5.93025e-06)
(2.19193e-05 1.53714e-06 0 6.28898e-07 0 5.93489e-06)
(2.1566e-05 1.51989e-06 0 6.18578e-07 0 5.93876e-06)
(2.12211e-05 1.50418e-06 0 6.09275e-07 0 5.94263e-06)
(2.08903e-05 1.48995e-06 0 6.00061e-07 0 5.94767e-06)
(2.05679e-05 1.47587e-06 0 5.91536e-07 0 5.95126e-06)
(2.62111e-05 2.37544e-06 0 1.61586e-06 0 7.28999e-06)
(2.63982e-05 2.35256e-06 0 1.57872e-06 0 7.22496e-06)
(2.65604e-05 2.32781e-06 0 1.54001e-06 0 7.16314e-06)
(2.66955e-05 2.3014e-06 0 1.49936e-06 0 7.10431e-06)
(2.67957e-05 2.27382e-06 0 1.45901e-06 0 7.04043e-06)
(2.68651e-05 2.24332e-06 0 1.41834e-06 0 6.97548e-06)
(2.69022e-05 2.2125e-06 0 1.37743e-06 0 6.9157e-06)
(2.69061e-05 2.18194e-06 0 1.33671e-06 0 6.86171e-06)
(2.68737e-05 2.15116e-06 0 1.29668e-06 0 6.81421e-06)
(2.68033e-05 2.12112e-06 0 1.25861e-06 0 6.77014e-06)
(2.66959e-05 2.09458e-06 0 1.22204e-06 0 6.72634e-06)
(2.65512e-05 2.06945e-06 0 1.18716e-06 0 6.68352e-06)
(2.63715e-05 2.04202e-06 0 1.15379e-06 0 6.64329e-06)
(2.61622e-05 2.0114e-06 0 1.12084e-06 0 6.60846e-06)
(2.59287e-05 1.98017e-06 0 1.08837e-06 0 6.5769e-06)
(2.56596e-05 1.95055e-06 0 1.05898e-06 0 6.5508e-06)
(2.53638e-05 1.92317e-06 0 1.03076e-06 0 6.52903e-06)
(2.50414e-05 1.89792e-06 0 1.00494e-06 0 6.5093e-06)
(2.46942e-05 1.8743e-06 0 9.80839e-07 0 6.49302e-06)
(2.43356e-05 1.85091e-06 0 9.58652e-07 0 6.48059e-06)
(2.39666e-05 1.82809e-06 0 9.3835e-07 0 6.47104e-06)
(2.35938e-05 1.80556e-06 0 9.18315e-07 0 6.4639e-06)
(2.32171e-05 1.78291e-06 0 8.99213e-07 0 6.45887e-06)
(2.2838e-05 1.75982e-06 0 8.80997e-07 0 6.45762e-06)
(2.24582e-05 1.73767e-06 0 8.64357e-07 0 6.46048e-06)
(2.20798e-05 1.71619e-06 0 8.48638e-07 0 6.46768e-06)
(2.17031e-05 1.69431e-06 0 8.33153e-07 0 6.47428e-06)
(2.13311e-05 1.6721e-06 0 8.18174e-07 0 6.47813e-06)
(2.09673e-05 1.65067e-06 0 8.04936e-07 0 6.48161e-06)
(2.06153e-05 1.63104e-06 0 7.9332e-07 0 6.48586e-06)
(2.02803e-05 1.61354e-06 0 7.82517e-07 0 6.48967e-06)
(1.99579e-05 1.59702e-06 0 7.7202e-07 0 6.49301e-06)
(1.96445e-05 1.58126e-06 0 7.62678e-07 0 6.4968e-06)
(2.55887e-05 2.49881e-06 0 1.87738e-06 0 7.63767e-06)
(2.57394e-05 2.47421e-06 0 1.835e-06 0 7.58227e-06)
(2.58648e-05 2.44808e-06 0 1.79099e-06 0 7.53073e-06)
(2.5961e-05 2.41958e-06 0 1.74638e-06 0 7.47674e-06)
(2.60212e-05 2.38977e-06 0 1.702e-06 0 7.41711e-06)
(2.60447e-05 2.3569e-06 0 1.65709e-06 0 7.35832e-06)
(2.6036e-05 2.32338e-06 0 1.61163e-06 0 7.30435e-06)
(2.59927e-05 2.28994e-06 0 1.56711e-06 0 7.25835e-06)
(2.59133e-05 2.25651e-06 0 1.52355e-06 0 7.21731e-06)
(2.57972e-05 2.22446e-06 0 1.48172e-06 0 7.17671e-06)
(2.56421e-05 2.19567e-06 0 1.4419e-06 0 7.13711e-06)
(2.54463e-05 2.16719e-06 0 1.40419e-06 0 7.09898e-06)
(2.52172e-05 2.13529e-06 0 1.36822e-06 0 7.06446e-06)
(2.49647e-05 2.10139e-06 0 1.33264e-06 0 7.03253e-06)
(2.46833e-05 2.06756e-06 0 1.29866e-06 0 7.00445e-06)
(2.43727e-05 2.03505e-06 0 1.26697e-06 0 6.98203e-06)
(2.40383e-05 2.00459e-06 0 1.23676e-06 0 6.96313e-06)
(2.36819e-05 1.97563e-06 0 1.20828e-06 0 6.94694e-06)
(2.33106e-05 1.94839e-06 0 1.18134e-06 0 6.93425e-06)
(2.29329e-05 1.92235e-06 0 1.15736e-06 0 6.92282e-06)
(2.25512e-05 1.8972e-06 0 1.13535e-06 0 6.91271e-06)
(2.21681e-05 1.87284e-06 0 1.11438e-06 0 6.90511e-06)
(2.17867e-05 1.84774e-06 0 1.09386e-06 0 6.89992e-06)
(2.14061e-05 1.82193e-06 0 1.07416e-06 0 6.89947e-06)
(2.10271e-05 1.79669e-06 0 1.05591e-06 0 6.90289e-06)
(2.06553e-05 1.77242e-06 0 1.03895e-06 0 6.90966e-06)
(2.02954e-05 1.74922e-06 0 1.02233e-06 0 6.91695e-06)
(1.99472e-05 1.72811e-06 0 1.00634e-06 0 6.92378e-06)
(1.96089e-05 1.70784e-06 0 9.91944e-07 0 6.93069e-06)
(1.92819e-05 1.68869e-06 0 9.79292e-07 0 6.93868e-06)
(1.8972e-05 1.6701e-06 0 9.67309e-07 0 6.94184e-06)
(1.8673e-05 1.65253e-06 0 9.56337e-07 0 6.94366e-06)
(1.83853e-05 1.63613e-06 0 9.46077e-07 0 6.94534e-06)
(2.46024e-05 2.5623e-06 0 2.11222e-06 0 7.91976e-06)
(2.47043e-05 2.53549e-06 0 2.06567e-06 0 7.87215e-06)
(2.47802e-05 2.50705e-06 0 2.01843e-06 0 7.82535e-06)
(2.48285e-05 2.47594e-06 0 1.97077e-06 0 7.77286e-06)
(2.48373e-05 2.44373e-06 0 1.92359e-06 0 7.71782e-06)
(2.48104e-05 2.40888e-06 0 1.87545e-06 0 7.66499e-06)
(2.47459e-05 2.37195e-06 0 1.82723e-06 0 7.61727e-06)
(2.46499e-05 2.33509e-06 0 1.77982e-06 0 7.57579e-06)
(2.45204e-05 2.29915e-06 0 1.73409e-06 0 7.53728e-06)
(2.43598e-05 2.26457e-06 0 1.68979e-06 0 7.5e-06)
(2.41638e-05 2.23327e-06 0 1.64836e-06 0 7.46251e-06)
(2.393e-05 2.20145e-06 0 1.60948e-06 0 7.42765e-06)
(2.36654e-05 2.16699e-06 0 1.57287e-06 0 7.39773e-06)
(2.33806e-05 2.13192e-06 0 1.5367e-06 0 7.37002e-06)
(2.30693e-05 2.0971e-06 0 1.50253e-06 0 7.346e-06)
(2.27393e-05 2.06369e-06 0 1.4697e-06 0 7.32768e-06)
(2.23855e-05 2.03171e-06 0 1.43866e-06 0 7.31178e-06)
(2.20153e-05 2.00111e-06 0 1.4096e-06 0 7.30045e-06)
(2.16404e-05 1.97183e-06 0 1.3816e-06 0 7.29181e-06)
(2.12637e-05 1.94444e-06 0 1.35678e-06 0 7.28287e-06)
(2.08868e-05 1.91902e-06 0 1.3344e-06 0 7.27569e-06)
(2.05125e-05 1.89366e-06 0 1.31298e-06 0 7.26866e-06)
(2.01451e-05 1.86691e-06 0 1.29182e-06 0 7.26383e-06)
(1.97798e-05 1.83913e-06 0 1.2713e-06 0 7.26308e-06)
(1.94202e-05 1.81136e-06 0 1.25208e-06 0 7.26585e-06)
(1.90723e-05 1.78508e-06 0 1.2344e-06 0 7.27007e-06)
(1.87394e-05 1.76095e-06 0 1.21697e-06 0 7.27462e-06)
(1.8418e-05 1.73911e-06 0 1.20045e-06 0 7.27841e-06)
(1.81082e-05 1.7185e-06 0 1.18546e-06 0 7.28305e-06)
(1.78131e-05 1.69987e-06 0 1.17208e-06 0 7.28981e-06)
(1.75339e-05 1.68343e-06 0 1.1598e-06 0 7.2969e-06)
(1.72643e-05 1.66803e-06 0 1.14859e-06 0 7.30274e-06)
(1.70063e-05 1.65288e-06 0 1.13812e-06 0 7.30487e-06)
(2.34126e-05 2.58251e-06 0 2.32207e-06 0 8.15094e-06)
(2.34602e-05 2.55312e-06 0 2.27291e-06 0 8.10797e-06)
(2.34839e-05 2.52188e-06 0 2.22369e-06 0 8.06056e-06)
(2.34776e-05 2.48836e-06 0 2.17482e-06 0 8.0091e-06)
(2.34389e-05 2.45358e-06 0 2.12548e-06 0 7.95776e-06)
(2.33584e-05 2.4168e-06 0 2.07594e-06 0 7.91018e-06)
(2.32436e-05 2.37744e-06 0 2.02648e-06 0 7.86811e-06)
(2.31037e-05 2.339e-06 0 1.97755e-06 0 7.82998e-06)
(2.29309e-05 2.3008e-06 0 1.93073e-06 0 7.79395e-06)
(2.27312e-05 2.26366e-06 0 1.88564e-06 0 7.75955e-06)
(2.24991e-05 2.22893e-06 0 1.84341e-06 0 7.72297e-06)
(2.22307e-05 2.19339e-06 0 1.80462e-06 0 7.69018e-06)
(2.1942e-05 2.15688e-06 0 1.76766e-06 0 7.66123e-06)
(2.16351e-05 2.12068e-06 0 1.73198e-06 0 7.63534e-06)
(2.13096e-05 2.08497e-06 0 1.69821e-06 0 7.61432e-06)
(2.09711e-05 2.05059e-06 0 1.66481e-06 0 7.59693e-06)
(2.06151e-05 2.0168e-06 0 1.63379e-06 0 7.58172e-06)
(2.02516e-05 1.984e-06 0 1.60458e-06 0 7.57094e-06)
(1.98901e-05 1.95233e-06 0 1.5771e-06 0 7.56198e-06)
(1.953e-05 1.92366e-06 0 1.55277e-06 0 7.55328e-06)
(1.91755e-05 1.89788e-06 0 1.53069e-06 0 7.54814e-06)
(1.88254e-05 1.87332e-06 0 1.50961e-06 0 7.54526e-06)
(1.84807e-05 1.84705e-06 0 1.48858e-06 0 7.54369e-06)
(1.81394e-05 1.81948e-06 0 1.46818e-06 0 7.54576e-06)
(1.78049e-05 1.79189e-06 0 1.44917e-06 0 7.55061e-06)
(1.74832e-05 1.7658e-06 0 1.43152e-06 0 7.55591e-06)
(1.71865e-05 1.74148e-06 0 1.4139e-06 0 7.55708e-06)
(1.69018e-05 1.71995e-06 0 1.39718e-06 0 7.55797e-06)
(1.66301e-05 1.7004e-06 0 1.38194e-06 0 7.56056e-06)
(1.63708e-05 1.68282e-06 0 1.36824e-06 0 7.56442e-06)
(1.61262e-05 1.66687e-06 0 1.35609e-06 0 7.56754e-06)
(1.58884e-05 1.6527e-06 0 1.34508e-06 0 7.57071e-06)
(1.56615e-05 1.64e-06 0 1.33468e-06 0 7.57471e-06)
(2.20697e-05 2.593e-06 0 2.55026e-06 0 8.3591e-06)
(2.20898e-05 2.55989e-06 0 2.50129e-06 0 8.32052e-06)
(2.20898e-05 2.52797e-06 0 2.45099e-06 0 8.27773e-06)
(2.20629e-05 2.49431e-06 0 2.40143e-06 0 8.2288e-06)
(2.20033e-05 2.45807e-06 0 2.35265e-06 0 8.17773e-06)
(2.19138e-05 2.42021e-06 0 2.30333e-06 0 8.12791e-06)
(2.17893e-05 2.38098e-06 0 2.25396e-06 0 8.08315e-06)
(2.16423e-05 2.34133e-06 0 2.20369e-06 0 8.04609e-06)
(2.14646e-05 2.30179e-06 0 2.1545e-06 0 8.01065e-06)
(2.12618e-05 2.2614e-06 0 2.10755e-06 0 7.97816e-06)
(2.10301e-05 2.22225e-06 0 2.06379e-06 0 7.947e-06)
(2.07726e-05 2.18472e-06 0 2.02263e-06 0 7.915e-06)
(2.04867e-05 2.14754e-06 0 1.98521e-06 0 7.88511e-06)
(2.01899e-05 2.111e-06 0 1.94957e-06 0 7.85704e-06)
(1.98776e-05 2.07473e-06 0 1.91568e-06 0 7.8332e-06)
(1.95536e-05 2.03951e-06 0 1.88288e-06 0 7.81516e-06)
(1.92197e-05 2.0055e-06 0 1.85057e-06 0 7.79936e-06)
(1.88751e-05 1.97107e-06 0 1.82104e-06 0 7.78606e-06)
(1.85294e-05 1.93702e-06 0 1.79343e-06 0 7.77634e-06)
(1.81864e-05 1.90515e-06 0 1.76808e-06 0 7.76858e-06)
(1.78511e-05 1.87684e-06 0 1.74551e-06 0 7.76216e-06)
(1.75298e-05 1.85062e-06 0 1.72452e-06 0 7.75741e-06)
(1.7214e-05 1.82601e-06 0 1.70395e-06 0 7.75457e-06)
(1.69003e-05 1.80014e-06 0 1.68319e-06 0 7.753e-06)
(1.65958e-05 1.7728e-06 0 1.66282e-06 0 7.75369e-06)
(1.63009e-05 1.74571e-06 0 1.64387e-06 0 7.75615e-06)
(1.602e-05 1.72036e-06 0 1.6262e-06 0 7.75916e-06)
(1.575e-05 1.69808e-06 0 1.60934e-06 0 7.76247e-06)
(1.5494e-05 1.67869e-06 0 1.59373e-06 0 7.76561e-06)
(1.52498e-05 1.66166e-06 0 1.57946e-06 0 7.77047e-06)
(1.50245e-05 1.64631e-06 0 1.56618e-06 0 7.77302e-06)
(1.4814e-05 1.63187e-06 0 1.55426e-06 0 7.77251e-06)
(1.46151e-05 1.61973e-06 0 1.54321e-06 0 7.77184e-06)
(1.44273e-05 1.60909e-06 0 1.53295e-06 0 7.7747e-06)
(2.07422e-05 2.54085e-06 0 2.70557e-06 0 8.47059e-06)
(2.07228e-05 2.50567e-06 0 2.65556e-06 0 8.43274e-06)
(2.06794e-05 2.47127e-06 0 2.60569e-06 0 8.39007e-06)
(2.06057e-05 2.4352e-06 0 2.55726e-06 0 8.34226e-06)
(2.04995e-05 2.39685e-06 0 2.5098e-06 0 8.29278e-06)
(2.03663e-05 2.35678e-06 0 2.46211e-06 0 8.244e-06)
(2.02113e-05 2.31594e-06 0 2.41374e-06 0 8.20361e-06)
(2.00397e-05 2.2765e-06 0 2.36396e-06 0 8.17228e-06)
(1.98358e-05 2.23577e-06 0 2.31574e-06 0 8.14213e-06)
(1.96091e-05 2.19391e-06 0 2.26991e-06 0 8.11542e-06)
(1.93552e-05 2.15265e-06 0 2.22839e-06 0 8.08832e-06)
(1.90796e-05 2.1133e-06 0 2.18957e-06 0 8.06004e-06)
(1.87945e-05 2.07621e-06 0 2.15393e-06 0 8.03334e-06)
(1.8502e-05 2.04003e-06 0 2.12061e-06 0 8.00574e-06)
(1.82006e-05 2.00436e-06 0 2.0889e-06 0 7.98148e-06)
(1.78941e-05 1.96983e-06 0 2.05763e-06 0 7.96226e-06)
(1.75799e-05 1.93611e-06 0 2.02721e-06 0 7.94603e-06)
(1.72582e-05 1.90088e-06 0 1.99997e-06 0 7.93237e-06)
(1.694e-05 1.86629e-06 0 1.97443e-06 0 7.9215e-06)
(1.66286e-05 1.83528e-06 0 1.95153e-06 0 7.91328e-06)
(1.63303e-05 1.80741e-06 0 1.93117e-06 0 7.90689e-06)
(1.60375e-05 1.78167e-06 0 1.91254e-06 0 7.90229e-06)
(1.57505e-05 1.75809e-06 0 1.8933e-06 0 7.89997e-06)
(1.54676e-05 1.73401e-06 0 1.87366e-06 0 7.9005e-06)
(1.51923e-05 1.70869e-06 0 1.85417e-06 0 7.90265e-06)
(1.4929e-05 1.68378e-06 0 1.83631e-06 0 7.90546e-06)
(1.4685e-05 1.66077e-06 0 1.81897e-06 0 7.90746e-06)
(1.4456e-05 1.64075e-06 0 1.80277e-06 0 7.90884e-06)
(1.42389e-05 1.62293e-06 0 1.78829e-06 0 7.91092e-06)
(1.40343e-05 1.608e-06 0 1.77501e-06 0 7.91323e-06)
(1.38422e-05 1.5953e-06 0 1.76239e-06 0 7.91368e-06)
(1.3656e-05 1.58375e-06 0 1.75121e-06 0 7.91373e-06)
(1.3479e-05 1.57432e-06 0 1.74124e-06 0 7.91525e-06)
(1.33211e-05 1.56638e-06 0 1.73131e-06 0 7.91929e-06)
(1.94185e-05 2.46243e-06 0 2.83672e-06 0 8.53186e-06)
(1.93637e-05 2.42541e-06 0 2.78708e-06 0 8.49351e-06)
(1.92817e-05 2.38848e-06 0 2.73929e-06 0 8.45234e-06)
(1.91686e-05 2.35015e-06 0 2.69314e-06 0 8.40678e-06)
(1.90266e-05 2.31027e-06 0 2.64739e-06 0 8.3595e-06)
(1.8862e-05 2.26843e-06 0 2.60233e-06 0 8.31539e-06)
(1.86906e-05 2.22747e-06 0 2.55504e-06 0 8.28153e-06)
(1.84998e-05 2.18711e-06 0 2.50702e-06 0 8.25505e-06)
(1.8283e-05 2.1452e-06 0 2.46103e-06 0 8.23211e-06)
(1.80404e-05 2.10181e-06 0 2.4176e-06 0 8.21051e-06)
(1.77793e-05 2.05916e-06 0 2.37843e-06 0 8.18569e-06)
(1.75073e-05 2.0202e-06 0 2.34271e-06 0 8.15891e-06)
(1.72397e-05 1.98355e-06 0 2.30995e-06 0 8.134e-06)
(1.69641e-05 1.94843e-06 0 2.27983e-06 0 8.10693e-06)
(1.66826e-05 1.91438e-06 0 2.25094e-06 0 8.08203e-06)
(1.63961e-05 1.88164e-06 0 2.2228e-06 0 8.06187e-06)
(1.61025e-05 1.84806e-06 0 2.19568e-06 0 8.04549e-06)
(1.58041e-05 1.81363e-06 0 2.17139e-06 0 8.03229e-06)
(1.55109e-05 1.78083e-06 0 2.14902e-06 0 8.02268e-06)
(1.52314e-05 1.75166e-06 0 2.12933e-06 0 8.01443e-06)
(1.49608e-05 1.72461e-06 0 2.1117e-06 0 8.0077e-06)
(1.46969e-05 1.69997e-06 0 2.09495e-06 0 8.00257e-06)
(1.44398e-05 1.67747e-06 0 2.07743e-06 0 7.99951e-06)
(1.41968e-05 1.65495e-06 0 2.05896e-06 0 7.99827e-06)
(1.39647e-05 1.63217e-06 0 2.04079e-06 0 7.99939e-06)
(1.37434e-05 1.61011e-06 0 2.02363e-06 0 7.9998e-06)
(1.35324e-05 1.59049e-06 0 2.00761e-06 0 8.00133e-06)
(1.33295e-05 1.5734e-06 0 1.99319e-06 0 8.00278e-06)
(1.31385e-05 1.5583e-06 0 1.98053e-06 0 8.00529e-06)
(1.29582e-05 1.54622e-06 0 1.96873e-06 0 8.00819e-06)
(1.27986e-05 1.5362e-06 0 1.95705e-06 0 8.00675e-06)
(1.26506e-05 1.52718e-06 0 1.94616e-06 0 8.00412e-06)
(1.25109e-05 1.52024e-06 0 1.93626e-06 0 8.00439e-06)
(1.81502e-05 2.3617e-06 0 2.94536e-06 0 8.54249e-06)
(1.80628e-05 2.32255e-06 0 2.89829e-06 0 8.50819e-06)
(1.79488e-05 2.28366e-06 0 2.85372e-06 0 8.47076e-06)
(1.78087e-05 2.24446e-06 0 2.80976e-06 0 8.42984e-06)
(1.76427e-05 2.20354e-06 0 2.76663e-06 0 8.38916e-06)
(1.74636e-05 2.16091e-06 0 2.72409e-06 0 8.35342e-06)
(1.72802e-05 2.11911e-06 0 2.67912e-06 0 8.32763e-06)
(1.70763e-05 2.07751e-06 0 2.63439e-06 0 8.30464e-06)
(1.685e-05 2.0352e-06 0 2.59219e-06 0 8.28544e-06)
(1.66027e-05 1.99156e-06 0 2.55294e-06 0 8.26496e-06)
(1.63472e-05 1.94966e-06 0 2.51722e-06 0 8.23934e-06)
(1.60928e-05 1.91207e-06 0 2.48576e-06 0 8.216e-06)
(1.58409e-05 1.87747e-06 0 2.45709e-06 0 8.19277e-06)
(1.55823e-05 1.84474e-06 0 2.43073e-06 0 8.16798e-06)
(1.53192e-05 1.81272e-06 0 2.40576e-06 0 8.14491e-06)
(1.50534e-05 1.78074e-06 0 2.38147e-06 0 8.1255e-06)
(1.47857e-05 1.74783e-06 0 2.35764e-06 0 8.10885e-06)