/*--------------------------------*- C++ -*----------------------------------*\
| =========                 |                                                 |
| \\      /  F ield         | OpenFOAM: The Open Source CFD Toolbox           |
|  \\    /   O peration     | Version:  2.4.0                                 |
|   \\  /    A nd           | Web:      www.OpenFOAM.org                      |
|    \\/     M anipulation  |                                                 |
\*---------------------------------------------------------------------------*/
FoamFile
{
    version     2.0;
    format      ascii;
    class       volScalarField;
    location    "25000";
    object      k_0;
}
// * * * * * * * * * * * * * * * * * * * * * * * * * * * * * * * * * * * * * //

dimensions      [0 2 -2 0 0 0 0];

internalField   nonuniform List<scalar> 
14751
(
5.62126e-09
5.86117e-09
6.13096e-09
6.40672e-09
6.69792e-09
7.00079e-09
7.31065e-09
7.63316e-09
7.96357e-09
8.30711e-09
8.65882e-09
9.02193e-09
9.39331e-09
9.7708e-09
1.01566e-08
1.0548e-08
1.09464e-08
1.13476e-08
1.17548e-08
1.21654e-08
1.25822e-08
1.30037e-08
1.34297e-08
1.38593e-08
1.42952e-08
1.47357e-08
1.51798e-08
1.56278e-08
1.60777e-08
1.65303e-08
1.69856e-08
1.74433e-08
1.79029e-08
1.83636e-08
1.88247e-08
1.92864e-08
1.97453e-08
2.02024e-08
2.06557e-08
2.11051e-08
2.15464e-08
2.19807e-08
2.24089e-08
2.28263e-08
2.32337e-08
2.36279e-08
2.40072e-08
2.43701e-08
2.47133e-08
2.50345e-08
2.53312e-08
2.56007e-08
2.58403e-08
2.6046e-08
2.62143e-08
2.6342e-08
2.64272e-08
2.64661e-08
2.64402e-08
2.6335e-08
2.61403e-08
2.58357e-08
2.5403e-08
2.48226e-08
2.40722e-08
2.31422e-08
2.20289e-08
2.07415e-08
1.93008e-08
1.77471e-08
1.61325e-08
1.45142e-08
1.2949e-08
1.14838e-08
1.01519e-08
8.97179e-09
7.94891e-09
7.08047e-09
6.35909e-09
5.7748e-09
5.3109e-09
4.94786e-09
4.67006e-09
4.45937e-09
4.30475e-09
4.19624e-09
4.12725e-09
4.09273e-09
4.0889e-09
4.11275e-09
4.16256e-09
4.23646e-09
4.33393e-09
4.45453e-09
4.59667e-09
4.76188e-09
4.94594e-09
5.14839e-09
5.36872e-09
1.0559e-07
1.09968e-07
1.14872e-07
1.19856e-07
1.25099e-07
1.30538e-07
1.36085e-07
1.41795e-07
1.47639e-07
1.53703e-07
1.59906e-07
1.66297e-07
1.72831e-07
1.79475e-07
1.86261e-07
1.93151e-07
2.0016e-07
2.07222e-07
2.14386e-07
2.21617e-07
2.28956e-07
2.36377e-07
2.4388e-07
2.51453e-07
2.59136e-07
2.669e-07
2.74728e-07
2.82622e-07
2.90553e-07
2.98534e-07
3.06566e-07
3.14641e-07
3.22753e-07
3.30889e-07
3.39035e-07
3.47188e-07
3.553e-07
3.63384e-07
3.71405e-07
3.79355e-07
3.8717e-07
3.94872e-07
4.02472e-07
4.09897e-07
4.17152e-07
4.24184e-07
4.3096e-07
4.37458e-07
4.43619e-07
4.49403e-07
4.54765e-07
4.59657e-07
4.64031e-07
4.67819e-07
4.70956e-07
4.73386e-07
4.75067e-07
4.75922e-07
4.75625e-07
4.73931e-07
4.70641e-07
4.65399e-07
4.57871e-07
4.47698e-07
4.34498e-07
4.1809e-07
3.98404e-07
3.75587e-07
3.50004e-07
3.22358e-07
2.93561e-07
2.64627e-07
2.36574e-07
2.10252e-07
1.86279e-07
1.65011e-07
1.46568e-07
1.30894e-07
1.17852e-07
1.07282e-07
9.88835e-08
9.23045e-08
8.72692e-08
8.3454e-08
8.06626e-08
7.87166e-08
7.74974e-08
7.6914e-08
7.68978e-08
7.73934e-08
7.83693e-08
7.97918e-08
8.16495e-08
8.39323e-08
8.66076e-08
8.97022e-08
9.31335e-08
9.68881e-08
1.00949e-07
4.23733e-07
4.40559e-07
4.60057e-07
4.80442e-07
5.02382e-07
5.25463e-07
5.49233e-07
5.73942e-07
5.9937e-07
6.25505e-07
6.52372e-07
6.80158e-07
7.08751e-07
7.37969e-07
7.67916e-07
7.98468e-07
8.29609e-07
8.61096e-07
8.93083e-07
9.25443e-07
9.58271e-07
9.9147e-07
1.02501e-06
1.05885e-06
1.09307e-06
1.12758e-06
1.16231e-06
1.19724e-06
1.23227e-06
1.26742e-06
1.30269e-06
1.33803e-06
1.37341e-06
1.40877e-06
1.44406e-06
1.47923e-06
1.51415e-06
1.54885e-06
1.58317e-06
1.61707e-06
1.65036e-06
1.6831e-06
1.71529e-06
1.74669e-06
1.77726e-06
1.80683e-06
1.83525e-06
1.86241e-06
1.88814e-06
1.9123e-06
1.9347e-06
1.95515e-06
1.97347e-06
1.98938e-06
2.00261e-06
2.01291e-06
2.02007e-06
2.02368e-06
2.02255e-06
2.01569e-06
2.00222e-06
1.98075e-06
1.9499e-06
1.90823e-06
1.85422e-06
1.78699e-06
1.70613e-06
1.61206e-06
1.50613e-06
1.39101e-06
1.27034e-06
1.14826e-06
1.02909e-06
9.16562e-07
8.13512e-07
7.21696e-07
6.41824e-07
5.73763e-07
5.16908e-07
4.70178e-07
4.32737e-07
4.03058e-07
3.79985e-07
3.62126e-07
3.48642e-07
3.38751e-07
3.31929e-07
3.27769e-07
3.25961e-07
3.26246e-07
3.28467e-07
3.32454e-07
3.38157e-07
3.45536e-07
3.54473e-07
3.65119e-07
3.77205e-07
3.90818e-07
4.05997e-07
1.1181e-06
1.15875e-06
1.20772e-06
1.26037e-06
1.31825e-06
1.37997e-06
1.44402e-06
1.51111e-06
1.5805e-06
1.65207e-06
1.72576e-06
1.80145e-06
1.87885e-06
1.95807e-06
2.03926e-06
2.12227e-06
2.20669e-06
2.29199e-06
2.37836e-06
2.46552e-06
2.55343e-06
2.64182e-06
2.73055e-06
2.81944e-06
2.90853e-06
2.99758e-06
3.08642e-06
3.17494e-06
3.26292e-06
3.35035e-06
3.43718e-06
3.52329e-06
3.60865e-06
3.69311e-06
3.77655e-06
3.85887e-06
3.9399e-06
4.01973e-06
4.09805e-06
4.17473e-06
4.24959e-06
4.32258e-06
4.39358e-06
4.46247e-06
4.52922e-06
4.59357e-06
4.65528e-06
4.71419e-06
4.77003e-06
4.82257e-06
4.8715e-06
4.91646e-06
4.95715e-06
4.99306e-06
5.02366e-06
5.04839e-06
5.06656e-06
5.07734e-06
5.07867e-06
5.06865e-06
5.0453e-06
5.00586e-06
4.9473e-06
4.86635e-06
4.75943e-06
4.62361e-06
4.45659e-06
4.25739e-06
4.02682e-06
3.76851e-06
3.48873e-06
3.19608e-06
2.90074e-06
2.613e-06
2.34203e-06
2.09479e-06
1.87545e-06
1.68545e-06
1.52428e-06
1.38966e-06
1.27897e-06
1.18877e-06
1.11716e-06
1.06024e-06
1.01576e-06
9.81469e-07
9.55838e-07
9.37679e-07
9.26062e-07
9.20184e-07
9.19531e-07
9.23554e-07
9.32087e-07
9.45024e-07
9.62067e-07
9.83756e-07
1.0095e-06
1.0399e-06
1.07529e-06
2.31688e-06
2.38755e-06
2.47606e-06
2.57313e-06
2.68117e-06
2.79691e-06
2.91661e-06
3.04145e-06
3.16965e-06
3.30066e-06
3.43409e-06
3.56954e-06
3.7063e-06
3.8441e-06
3.98252e-06
4.12082e-06
4.25913e-06
4.39685e-06
4.53395e-06
4.67019e-06
4.80511e-06
4.9384e-06
5.06982e-06
5.19919e-06
5.32651e-06
5.45161e-06
5.57437e-06
5.69473e-06
5.81261e-06
5.92806e-06
6.04112e-06
6.1518e-06
6.26018e-06
6.36627e-06
6.46998e-06
6.5713e-06
6.67017e-06
6.76654e-06
6.86054e-06
6.95218e-06
7.04135e-06
7.12807e-06
7.21231e-06
7.29401e-06
7.37319e-06
7.44971e-06
7.52337e-06
7.59407e-06
7.66158e-06
7.7257e-06
7.78616e-06
7.84263e-06
7.8948e-06
7.94216e-06
7.98416e-06
8.0201e-06
8.04906e-06
8.07e-06
8.08134e-06
8.08108e-06
8.06714e-06
8.03671e-06
7.9866e-06
7.91322e-06
7.81248e-06
7.68037e-06
7.513e-06
7.307e-06
7.06003e-06
6.77163e-06
6.44379e-06
6.08133e-06
5.69234e-06
5.28773e-06
4.88041e-06
4.4837e-06
4.1094e-06
3.76625e-06
3.45967e-06
3.19116e-06
2.96036e-06
2.76401e-06
2.59902e-06
2.46219e-06
2.35108e-06
2.26132e-06
2.18992e-06
2.13455e-06
2.09327e-06
2.06426e-06
2.04636e-06
2.03823e-06
2.03946e-06
2.04982e-06
2.06865e-06
2.09727e-06
2.13458e-06
2.18241e-06
2.24164e-06
3.87545e-06
3.95937e-06
4.0689e-06
4.19046e-06
4.32625e-06
4.47106e-06
4.61886e-06
4.7709e-06
4.92459e-06
5.07899e-06
5.23351e-06
5.38771e-06
5.54076e-06
5.69238e-06
5.84228e-06
5.98988e-06
6.13539e-06
6.2782e-06
6.41841e-06
6.55565e-06
6.69022e-06
6.82205e-06
6.95106e-06
7.07725e-06
7.20068e-06
7.32135e-06
7.4393e-06
7.55456e-06
7.66721e-06
7.77733e-06
7.88502e-06
7.99033e-06
8.09332e-06
8.19402e-06
8.29255e-06
8.38897e-06
8.48325e-06
8.57543e-06
8.6656e-06
8.75379e-06
8.83995e-06
8.92407e-06
9.00614e-06
9.08611e-06
9.16399e-06
9.23967e-06
9.31299e-06
9.38384e-06
9.45203e-06
9.51738e-06
9.57962e-06
9.63845e-06
9.69356e-06
9.7445e-06
9.7907e-06
9.8315e-06
9.86598e-06
9.89297e-06
9.91145e-06
9.91974e-06
9.91603e-06
9.89805e-06
9.86317e-06
9.8085e-06
9.73078e-06
9.62674e-06
9.4932e-06
9.3273e-06
9.12684e-06
8.89074e-06
8.61941e-06
8.31497e-06
7.98162e-06
7.62548e-06
7.25438e-06
6.87725e-06
6.50318e-06
6.14046e-06
5.79619e-06
5.4753e-06
5.1816e-06
4.91607e-06
4.6796e-06
4.47149e-06
4.29013e-06
4.13472e-06
4.00378e-06
3.89531e-06
3.80746e-06
3.73783e-06
3.68503e-06
3.64707e-06
3.6234e-06
3.61378e-06
3.61699e-06
3.63543e-06
3.66729e-06
3.71628e-06
3.78357e-06
5.31731e-06
5.38911e-06
5.48778e-06
5.59934e-06
5.72498e-06
5.85932e-06
5.99583e-06
6.13556e-06
6.27604e-06
6.41631e-06
6.55596e-06
6.69466e-06
6.83181e-06
6.96724e-06
7.10084e-06
7.23223e-06
7.36165e-06
7.48861e-06
7.61331e-06
7.73557e-06
7.85561e-06
7.97343e-06
8.08901e-06
8.20234e-06
8.31351e-06
8.42254e-06
8.52947e-06
8.63434e-06
8.73721e-06
8.83813e-06
8.93718e-06
9.03439e-06
9.12981e-06
9.22347e-06
9.31544e-06
9.40575e-06
9.49437e-06
9.58134e-06
9.6667e-06
9.75044e-06
9.83252e-06
9.9129e-06
9.99156e-06
1.00684e-05
1.01435e-05
1.02166e-05
1.02876e-05
1.03565e-05
1.04229e-05
1.04868e-05
1.05478e-05
1.06056e-05
1.066e-05
1.07104e-05
1.07564e-05
1.07972e-05
1.0832e-05
1.08598e-05
1.08794e-05
1.08896e-05
1.08889e-05
1.08753e-05
1.08467e-05
1.08008e-05
1.07351e-05
1.06471e-05
1.05347e-05
1.03958e-05
1.02292e-05
1.00344e-05
9.81231e-06
9.56473e-06
9.295e-06
9.00753e-06
8.70766e-06
8.40118e-06
8.0938e-06
7.79064e-06
7.49624e-06
7.21401e-06
6.94699e-06
6.69672e-06
6.46498e-06
6.25252e-06
6.05981e-06
5.88731e-06
5.73482e-06
5.60145e-06
5.48682e-06
5.39016e-06
5.3108e-06
5.24683e-06
5.19793e-06
5.16425e-06
5.144e-06
5.14061e-06
5.15171e-06
5.18328e-06
5.23644e-06
6.34737e-06
6.40128e-06
6.47908e-06
6.56947e-06
6.67251e-06
6.78392e-06
6.89791e-06
7.01516e-06
7.13364e-06
7.25247e-06
7.37132e-06
7.48991e-06
7.6078e-06
7.72483e-06
7.84093e-06
7.95577e-06
8.06951e-06
8.18174e-06
8.29259e-06
8.40193e-06
8.50987e-06
8.61637e-06
8.7214e-06
8.82492e-06
8.92696e-06
9.0275e-06
9.12654e-06
9.22409e-06
9.32015e-06
9.41473e-06
9.50786e-06
9.59954e-06
9.68979e-06
9.77861e-06
9.86601e-06
9.952e-06
1.00365e-05
1.01196e-05
1.02013e-05
1.02814e-05
1.036e-05
1.0437e-05
1.05124e-05
1.0586e-05
1.06578e-05
1.07277e-05
1.07954e-05
1.0861e-05
1.0924e-05
1.09845e-05
1.10419e-05
1.10962e-05
1.11468e-05
1.11933e-05
1.12352e-05
1.12717e-05
1.13022e-05
1.13255e-05
1.13405e-05
1.13462e-05
1.13412e-05
1.13237e-05
1.12922e-05
1.12447e-05
1.11792e-05
1.10941e-05
1.09878e-05
1.08593e-05
1.07081e-05
1.05347e-05
1.03403e-05
1.01272e-05
9.89852e-06
9.65789e-06
9.40944e-06
9.15726e-06
8.90516e-06
8.6564e-06
8.41378e-06
8.17943e-06
7.95526e-06
7.7424e-06
7.54218e-06
7.35541e-06
7.18284e-06
7.02506e-06
6.88232e-06
6.75452e-06
6.64172e-06
6.54362e-06
6.45989e-06
6.38952e-06
6.3324e-06
6.28871e-06
6.25755e-06
6.24094e-06
6.23712e-06
6.25088e-06
6.28623e-06
6.9917e-06
7.03354e-06
7.09518e-06
7.16855e-06
7.25289e-06
7.34516e-06
7.44067e-06
7.53974e-06
7.64075e-06
7.74291e-06
7.84591e-06
7.94948e-06
8.05325e-06
8.15704e-06
8.26072e-06
8.36403e-06
8.46697e-06
8.56921e-06
8.67076e-06
8.7715e-06
8.87144e-06
8.97052e-06
9.06865e-06
9.16577e-06
9.26183e-06
9.35681e-06
9.45064e-06
9.5433e-06
9.63475e-06
9.72496e-06
9.81393e-06
9.90161e-06
9.988e-06
1.00731e-05
1.01568e-05
1.02392e-05
1.03201e-05
1.03996e-05
1.04776e-05
1.0554e-05
1.06289e-05
1.0702e-05
1.07733e-05
1.08427e-05
1.09102e-05
1.09755e-05
1.10384e-05
1.10989e-05
1.11566e-05
1.12114e-05
1.12628e-05
1.13106e-05
1.13544e-05
1.13936e-05
1.14277e-05
1.1456e-05
1.14776e-05
1.14916e-05
1.1497e-05
1.14926e-05
1.14773e-05
1.14495e-05
1.14078e-05
1.13508e-05
1.1277e-05
1.11854e-05
1.10751e-05
1.09459e-05
1.0798e-05
1.06327e-05
1.04517e-05
1.02575e-05
1.00532e-05
9.84194e-06
9.62707e-06
9.41162e-06
9.19821e-06
8.98902e-06
8.78581e-06
8.58992e-06
8.40252e-06
8.22438e-06
8.05635e-06
7.89906e-06
7.75306e-06
7.6188e-06
7.49655e-06
7.38634e-06
7.28827e-06
7.20217e-06
7.12783e-06
7.06462e-06
7.01245e-06
6.97143e-06
6.94102e-06
6.92247e-06
6.91492e-06
6.92106e-06
6.94537e-06
7.37449e-06
7.41091e-06
7.46346e-06
7.52668e-06
7.59924e-06
7.67914e-06
7.76268e-06
7.8499e-06
7.93953e-06
8.03082e-06
8.12349e-06
8.21726e-06
8.31181e-06
8.40693e-06
8.50247e-06
8.59815e-06
8.6939e-06
8.78942e-06
8.88467e-06
8.9795e-06
9.07386e-06
9.16767e-06
9.26081e-06
9.35319e-06
9.44473e-06
9.53537e-06
9.62503e-06
9.71363e-06
9.80113e-06
9.88746e-06
9.97258e-06
1.00564e-05
1.0139e-05
1.02202e-05
1.03e-05
1.03783e-05
1.04551e-05
1.05303e-05
1.06038e-05
1.06756e-05
1.07456e-05
1.08136e-05
1.08796e-05
1.09433e-05
1.10048e-05
1.10637e-05
1.112e-05
1.11732e-05
1.12233e-05
1.127e-05
1.13128e-05
1.13513e-05
1.13852e-05
1.1414e-05
1.14368e-05
1.14532e-05
1.14622e-05
1.14629e-05
1.14544e-05
1.14357e-05
1.14055e-05
1.13627e-05
1.13062e-05
1.12349e-05
1.1148e-05
1.10449e-05
1.09255e-05
1.07903e-05
1.06403e-05
1.04773e-05
1.03033e-05
1.01211e-05
9.93347e-06
9.74322e-06
9.55298e-06
9.36499e-06
9.18108e-06
9.0027e-06
8.83094e-06
8.66666e-06
8.5105e-06
8.36298e-06
8.22457e-06
8.09563e-06
7.97648e-06
7.86736e-06
7.76839e-06
7.67955e-06
7.60082e-06
7.53201e-06
7.47288e-06
7.42298e-06
7.38212e-06
7.35033e-06
7.32722e-06
7.31359e-06
7.30907e-06
7.31569e-06
7.33587e-06
7.60402e-06
7.63923e-06
7.68783e-06
7.74598e-06
7.81207e-06
7.88478e-06
7.96117e-06
8.0411e-06
8.12356e-06
8.20786e-06
8.29375e-06
8.38095e-06
8.46917e-06
8.55821e-06
8.64788e-06
8.73794e-06
8.82825e-06
8.91856e-06
9.00877e-06
9.09875e-06
9.18839e-06
9.2776e-06
9.36626e-06
9.45426e-06
9.54149e-06
9.62786e-06
9.71328e-06
9.79765e-06
9.8809e-06
9.96295e-06
1.00437e-05
1.01232e-05
1.02012e-05
1.02777e-05
1.03526e-05
1.0426e-05
1.04975e-05
1.05673e-05
1.06352e-05
1.0701e-05
1.07647e-05
1.08261e-05
1.08851e-05
1.09416e-05
1.09952e-05
1.10459e-05
1.10934e-05
1.11375e-05
1.11778e-05
1.1214e-05
1.12457e-05
1.12725e-05
1.1294e-05
1.13095e-05
1.13184e-05
1.132e-05
1.13135e-05
1.12981e-05
1.12729e-05
1.1237e-05
1.11894e-05
1.11294e-05
1.10562e-05
1.09691e-05
1.08679e-05
1.07525e-05
1.06237e-05
1.04825e-05
1.03306e-05
1.017e-05
1.0003e-05
9.83224e-06
9.66023e-06
9.48928e-06
9.32136e-06
9.15807e-06
9.00061e-06
8.84987e-06
8.70649e-06
8.5709e-06
8.44342e-06
8.32429e-06
8.21365e-06
8.11167e-06
8.01838e-06
7.93385e-06
7.85803e-06
7.79078e-06
7.73196e-06
7.68133e-06
7.63864e-06
7.60346e-06
7.57559e-06
7.55499e-06
7.54138e-06
7.53531e-06
7.53663e-06
7.54686e-06
7.56795e-06
7.75179e-06
7.78786e-06
7.83518e-06
7.89098e-06
7.95353e-06
8.02193e-06
8.09378e-06
8.16887e-06
8.24634e-06
8.32559e-06
8.40639e-06
8.48848e-06
8.57162e-06
8.65561e-06
8.74028e-06
8.82538e-06
8.91078e-06
8.99624e-06
9.08164e-06
9.16685e-06
9.25176e-06
9.33625e-06
9.4202e-06
9.50348e-06
9.58598e-06
9.6676e-06
9.7482e-06
9.8277e-06
9.90599e-06
9.98297e-06
1.00585e-05
1.01326e-05
1.02051e-05
1.0276e-05
1.0345e-05
1.04122e-05
1.04774e-05
1.05405e-05
1.06014e-05
1.06599e-05
1.07159e-05
1.07692e-05
1.08198e-05
1.08673e-05
1.09115e-05
1.09523e-05
1.09894e-05
1.10224e-05
1.1051e-05
1.1075e-05
1.10938e-05
1.1107e-05
1.11141e-05
1.11146e-05
1.11078e-05
1.10931e-05
1.10698e-05
1.1037e-05
1.09943e-05
1.09407e-05
1.08758e-05
1.07991e-05
1.07103e-05
1.06093e-05
1.04964e-05
1.03721e-05
1.02377e-05
1.00949e-05
9.94539e-06
9.79151e-06
9.63552e-06
9.47968e-06
9.32602e-06
9.17629e-06
9.03184e-06
8.89368e-06
8.7625e-06
8.63874e-06
8.52266e-06
8.41438e-06
8.31393e-06
8.22131e-06
8.13644e-06
8.05927e-06
7.98967e-06
7.92753e-06
7.8727e-06
7.82496e-06
7.7841e-06
7.74986e-06
7.72196e-06
7.70008e-06
7.68399e-06
7.67368e-06
7.66896e-06
7.67027e-06
7.67761e-06
7.6922e-06
7.71586e-06
7.85975e-06
7.89691e-06
7.94377e-06
7.99817e-06
8.05835e-06
8.12361e-06
8.19196e-06
8.26314e-06
8.33643e-06
8.41129e-06
8.48753e-06
8.56493e-06
8.64328e-06
8.72241e-06
8.80215e-06
8.88228e-06
8.96266e-06
9.04308e-06
9.12341e-06
9.20351e-06
9.28327e-06
9.36258e-06
9.44129e-06
9.51928e-06
9.59642e-06
9.67259e-06
9.74766e-06
9.82151e-06
9.89402e-06
9.96508e-06
1.00346e-05
1.01024e-05
1.01684e-05
1.02326e-05
1.02947e-05
1.03547e-05
1.04124e-05
1.04677e-05
1.05204e-05
1.05704e-05
1.06176e-05
1.06617e-05
1.07025e-05
1.07398e-05
1.07735e-05
1.08031e-05
1.08285e-05
1.08493e-05
1.08653e-05
1.08759e-05
1.08808e-05
1.08796e-05
1.08717e-05
1.08567e-05
1.0834e-05
1.08031e-05
1.07633e-05
1.07143e-05
1.06554e-05
1.05864e-05
1.0507e-05
1.04172e-05
1.03171e-05
1.02073e-05
1.00886e-05
9.96193e-06
9.82887e-06
9.69125e-06
9.55102e-06
9.41022e-06
9.27078e-06
9.13446e-06
9.00273e-06
8.87673e-06
8.75726e-06
8.64482e-06
8.53968e-06
8.44194e-06
8.35157e-06
8.26847e-06
8.19245e-06
8.12335e-06
8.06096e-06
8.00508e-06
7.95551e-06
7.91206e-06
7.87451e-06
7.84264e-06
7.81621e-06
7.79498e-06
7.77874e-06
7.76721e-06
7.76024e-06
7.75786e-06
7.75997e-06
7.767e-06
7.77907e-06
7.79727e-06
7.8233e-06
7.95012e-06
7.9877e-06
8.03392e-06
8.08687e-06
8.14478e-06
8.2071e-06
8.2721e-06
8.3395e-06
8.40869e-06
8.47919e-06
8.55083e-06
8.62345e-06
8.69686e-06
8.77092e-06
8.84547e-06
8.92033e-06
8.99535e-06
9.07033e-06
9.14515e-06
9.21968e-06
9.2938e-06
9.36737e-06
9.44028e-06
9.51238e-06
9.58353e-06
9.6536e-06
9.72245e-06
9.78994e-06
9.85594e-06
9.92033e-06
9.98298e-06
1.00438e-05
1.01025e-05
1.01592e-05
1.02135e-05
1.02655e-05
1.03149e-05
1.03616e-05
1.04054e-05
1.04461e-05
1.04836e-05
1.05177e-05
1.05481e-05
1.05747e-05
1.05971e-05
1.06151e-05
1.06284e-05
1.06367e-05
1.06397e-05
1.0637e-05
1.06283e-05
1.06131e-05
1.05911e-05
1.05618e-05
1.05248e-05
1.04797e-05
1.04262e-05
1.03641e-05
1.02932e-05
1.02134e-05
1.01249e-05
1.00281e-05
9.92366e-06
9.81241e-06
9.69554e-06
9.57444e-06
9.45047e-06
9.32542e-06
9.20102e-06
9.07886e-06
8.96038e-06
8.84676e-06
8.7389e-06
8.6374e-06
8.54262e-06
8.45469e-06
8.37359e-06
8.2992e-06
8.23131e-06
8.1697e-06
8.11409e-06
8.06422e-06
8.01984e-06
7.98072e-06
7.94661e-06
7.91734e-06
7.89268e-06
7.87242e-06
7.85638e-06
7.84437e-06
7.83622e-06
7.83173e-06
7.83084e-06
7.83364e-06
7.84011e-06
7.85074e-06
7.86572e-06
7.88612e-06
7.91352e-06
8.03387e-06
8.07092e-06
8.11588e-06
8.16689e-06
8.22222e-06
8.28135e-06
8.34275e-06
8.40616e-06
8.47101e-06
8.5369e-06
8.60369e-06
8.67125e-06
8.73942e-06
8.80809e-06
8.87712e-06
8.94635e-06
9.01562e-06
9.08477e-06
9.15367e-06
9.22219e-06
9.2902e-06
9.35759e-06
9.42421e-06
9.48992e-06
9.55458e-06
9.61803e-06
9.68014e-06
9.74075e-06
9.79972e-06
9.85691e-06
9.91218e-06
9.96538e-06
1.00164e-05
1.0065e-05
1.01112e-05
1.01547e-05
1.01953e-05
1.0233e-05
1.02675e-05
1.02987e-05
1.03264e-05
1.03503e-05
1.03703e-05
1.03861e-05
1.03975e-05
1.04043e-05
1.04061e-05
1.04026e-05
1.03937e-05
1.0379e-05
1.03583e-05
1.03311e-05
1.02973e-05
1.02565e-05
1.02086e-05
1.01533e-05
1.00907e-05
1.00207e-05
9.94348e-06
9.85933e-06
9.76874e-06
9.67239e-06
9.57117e-06
9.46616e-06
9.3586e-06
9.24986e-06
9.14121e-06
9.03398e-06
8.92946e-06
8.82875e-06
8.73274e-06
8.6421e-06
8.55727e-06
8.47848e-06
8.40578e-06
8.3391e-06
8.27827e-06
8.22307e-06
8.17323e-06
8.12846e-06
8.08851e-06
8.0531e-06
8.02197e-06
7.99493e-06
7.97175e-06
7.95228e-06
7.93634e-06
7.92375e-06
7.9144e-06
7.90813e-06
7.90485e-06
7.90443e-06
7.90688e-06
7.91235e-06
7.92093e-06
7.93314e-06
7.94925e-06
7.97032e-06
7.99792e-06
8.11622e-06
8.1518e-06
8.19478e-06
8.24328e-06
8.29554e-06
8.35109e-06
8.40855e-06
8.46764e-06
8.52786e-06
8.58884e-06
8.65049e-06
8.71268e-06
8.77533e-06
8.83832e-06
8.90153e-06
8.96482e-06
9.02805e-06
9.09106e-06
9.15373e-06
9.21593e-06
9.27754e-06
9.33842e-06
9.39845e-06
9.45747e-06
9.51533e-06
9.57188e-06
9.62696e-06
9.68042e-06
9.7321e-06
9.78185e-06
9.82954e-06
9.87499e-06
9.91807e-06
9.95863e-06
9.99649e-06
1.00315e-05
1.00635e-05
1.00924e-05
1.01179e-05
1.01399e-05
1.01581e-05
1.01725e-05
1.01828e-05
1.01888e-05
1.01903e-05
1.01871e-05
1.01789e-05
1.01656e-05
1.01469e-05
1.01227e-05
1.00927e-05
1.00569e-05
1.00149e-05
9.96691e-06
9.91273e-06
9.85247e-06
9.78629e-06
9.71443e-06
9.63729e-06
9.5554e-06
9.46943e-06
9.38019e-06
9.28861e-06
9.19573e-06
9.10263e-06
9.01043e-06
8.92018e-06
8.83269e-06
8.74877e-06
8.66908e-06
8.59407e-06
8.52406e-06
8.45919e-06
8.39947e-06
8.34481e-06
8.29505e-06
8.24998e-06
8.20935e-06
8.17292e-06
8.14043e-06
8.11163e-06
8.08628e-06
8.06418e-06
8.04516e-06
8.02905e-06
8.01573e-06
8.00507e-06
7.99695e-06
7.99128e-06
7.98797e-06
7.98699e-06
7.98826e-06
7.99185e-06
7.99799e-06
8.00682e-06
8.01894e-06
8.03466e-06
8.05508e-06
8.0817e-06
8.19964e-06
8.23296e-06
8.2733e-06
8.31873e-06
8.36749e-06
8.41909e-06
8.47227e-06
8.52674e-06
8.58205e-06
8.63788e-06
8.69415e-06
8.75078e-06
8.80769e-06
8.86479e-06
8.922e-06
8.97918e-06
9.0362e-06
9.09291e-06
9.14921e-06
9.20496e-06
9.26004e-06
9.31432e-06
9.36766e-06
9.41992e-06
9.47094e-06
9.52055e-06
9.56861e-06
9.61495e-06
9.65941e-06
9.70184e-06
9.7421e-06
9.78002e-06
9.81545e-06
9.84825e-06
9.87826e-06
9.90533e-06
9.92931e-06
9.95002e-06
9.96733e-06
9.98107e-06
9.99108e-06
9.9972e-06
9.99927e-06
9.99712e-06
9.9906e-06
9.97957e-06
9.96387e-06
9.94337e-06
9.91796e-06
9.88756e-06
9.85209e-06
9.81153e-06
9.76591e-06
9.71531e-06
9.65988e-06
9.59985e-06
9.53553e-06
9.46734e-06
9.39579e-06
9.32148e-06
9.24511e-06
9.16745e-06
9.08931e-06
9.01155e-06
8.93497e-06
8.86039e-06
8.78849e-06
8.71973e-06
8.65453e-06
8.5932e-06
8.53595e-06
8.48285e-06
8.43392e-06
8.38907e-06
8.34815e-06
8.31101e-06
8.27744e-06
8.24724e-06
8.22018e-06
8.19606e-06
8.17469e-06
8.15586e-06
8.13942e-06
8.12525e-06
8.11323e-06
8.10327e-06
8.09529e-06
8.08919e-06
8.08495e-06
8.08252e-06
8.08191e-06
8.08307e-06
8.08615e-06
8.09142e-06
8.09909e-06
8.10981e-06
8.12393e-06
8.14259e-06
8.16727e-06
8.28543e-06
8.31581e-06
8.35298e-06
8.3949e-06
8.43978e-06
8.48715e-06
8.53579e-06
8.58545e-06
8.63568e-06
8.6862e-06
8.73696e-06
8.78792e-06
8.839e-06
8.89017e-06
8.94133e-06
8.99237e-06
9.04318e-06
9.09362e-06
9.14358e-06
9.19295e-06
9.24159e-06
9.28939e-06
9.33621e-06
9.38189e-06
9.42628e-06
9.46922e-06
9.51056e-06
9.55013e-06
9.58778e-06
9.62335e-06
9.65671e-06
9.6877e-06
9.71617e-06
9.74199e-06
9.76501e-06
9.7851e-06
9.80212e-06
9.81593e-06
9.82641e-06
9.83342e-06
9.83684e-06
9.83655e-06
9.83244e-06
9.82441e-06
9.81235e-06
9.79619e-06
9.77587e-06
9.75134e-06
9.72258e-06
9.68961e-06
9.65248e-06
9.61128e-06
9.56615e-06
9.51728e-06
9.46495e-06
9.40947e-06
9.35122e-06
9.29067e-06
9.22832e-06
9.16475e-06
9.10055e-06
9.03635e-06
8.97278e-06
8.91044e-06
8.84989e-06
8.79163e-06
8.73606e-06
8.68337e-06
8.63374e-06
8.58728e-06
8.54405e-06
8.50402e-06
8.46714e-06
8.43329e-06
8.40235e-06
8.37417e-06
8.3486e-06
8.32547e-06
8.30461e-06
8.28585e-06
8.26907e-06
8.25408e-06
8.24081e-06
8.22914e-06
8.21901e-06
8.21036e-06
8.20314e-06
8.1973e-06
8.19284e-06
8.18976e-06
8.18809e-06
8.18784e-06
8.18917e-06
8.19244e-06
8.19787e-06
8.20619e-06
8.21779e-06
8.23384e-06
8.25581e-06
8.37435e-06
8.40129e-06
8.43487e-06
8.47295e-06
8.51372e-06
8.55666e-06
8.60063e-06
8.64537e-06
8.69044e-06
8.73563e-06
8.78089e-06
8.8262e-06
8.87152e-06
8.91683e-06
8.96206e-06
9.00711e-06
9.05188e-06
9.09625e-06
9.14012e-06
9.18338e-06
9.2259e-06
9.26756e-06
9.30824e-06
9.34777e-06
9.38602e-06
9.42283e-06
9.45803e-06
9.49148e-06
9.52303e-06
9.55253e-06
9.57985e-06
9.60485e-06
9.6274e-06
9.64737e-06
9.66464e-06
9.6791e-06
9.69063e-06
9.69913e-06
9.7045e-06
9.70665e-06
9.7055e-06
9.70098e-06
9.69302e-06
9.68158e-06
9.66662e-06
9.64815e-06
9.62615e-06
9.60067e-06
9.57176e-06
9.53952e-06
9.50408e-06
9.46559e-06
9.42428e-06
9.38038e-06
9.3342e-06
9.28608e-06
9.23639e-06
9.18555e-06
9.13401e-06
9.08222e-06
9.03065e-06
8.97975e-06
8.92995e-06
8.88164e-06
8.83517e-06
8.79081e-06
8.74877e-06
8.70904e-06
8.67168e-06
8.6367e-06
8.60408e-06
8.57375e-06
8.54565e-06
8.51967e-06
8.49571e-06
8.47365e-06
8.4534e-06
8.43481e-06
8.41777e-06
8.40214e-06
8.38786e-06
8.37477e-06
8.36283e-06
8.35196e-06
8.34213e-06
8.33331e-06
8.32547e-06
8.31861e-06
8.31275e-06
8.3079e-06
8.30414e-06
8.3015e-06
8.30019e-06
8.30059e-06
8.303e-06
8.30815e-06
8.31652e-06
8.3293e-06
8.34798e-06
8.46702e-06
8.49012e-06
8.51983e-06
8.55386e-06
8.59038e-06
8.62883e-06
8.6681e-06
8.70793e-06
8.74791e-06
8.78785e-06
8.82773e-06
8.86756e-06
8.90732e-06
8.94701e-06
8.98657e-06
9.02593e-06
9.06501e-06
9.1037e-06
9.1419e-06
9.1795e-06
9.21641e-06
9.25249e-06
9.28763e-06
9.32168e-06
9.35449e-06
9.38592e-06
9.41581e-06
9.44403e-06
9.47044e-06
9.4949e-06
9.5173e-06
9.5375e-06
9.5554e-06
9.57089e-06
9.58387e-06
9.59426e-06
9.60197e-06
9.60693e-06
9.60907e-06
9.60834e-06
9.60471e-06
9.59814e-06
9.58863e-06
9.57616e-06
9.56077e-06
9.5425e-06
9.52139e-06
9.49755e-06
9.47107e-06
9.44209e-06
9.41078e-06
9.37734e-06
9.34198e-06
9.30497e-06
9.26657e-06
9.2271e-06
9.18689e-06
9.14626e-06
9.10556e-06
9.06513e-06
9.02529e-06
8.98635e-06
8.94857e-06
8.91219e-06
8.87738e-06
8.84429e-06
8.81296e-06
8.78331e-06
8.75532e-06
8.72896e-06
8.70416e-06
8.68087e-06
8.65901e-06
8.63849e-06
8.61924e-06
8.6012e-06
8.58427e-06
8.56836e-06
8.5534e-06
8.5393e-06
8.526e-06
8.5134e-06
8.50147e-06
8.49017e-06
8.47949e-06
8.46943e-06
8.45998e-06
8.45116e-06
8.44302e-06
8.4356e-06
8.42899e-06
8.42325e-06
8.41863e-06
8.41552e-06
8.41429e-06
8.41571e-06
8.42031e-06
8.42931e-06
8.44426e-06
8.56397e-06
8.58297e-06
8.60864e-06
8.63854e-06
8.67079e-06
8.70477e-06
8.73943e-06
8.77447e-06
8.80954e-06
8.84444e-06
8.8792e-06
8.91383e-06
8.94836e-06
8.98278e-06
9.01709e-06
9.05121e-06
9.08509e-06
9.11862e-06
9.15172e-06
9.18431e-06
9.21626e-06
9.24748e-06
9.27785e-06
9.30723e-06
9.33547e-06
9.36245e-06
9.38803e-06
9.41207e-06
9.43445e-06
9.45505e-06
9.47377e-06
9.49049e-06
9.50513e-06
9.5176e-06
9.52783e-06
9.53575e-06
9.54131e-06
9.54446e-06
9.54518e-06
9.54344e-06
9.53925e-06
9.53259e-06
9.5235e-06
9.51202e-06
9.49819e-06
9.4821e-06
9.46382e-06
9.44347e-06
9.42118e-06
9.3971e-06
9.37139e-06
9.34425e-06
9.31588e-06
9.2865e-06
9.25636e-06
9.2257e-06
9.19477e-06
9.16382e-06
9.13309e-06
9.10282e-06
9.07321e-06
9.04445e-06
9.01668e-06
8.99004e-06
8.9646e-06
8.94041e-06
8.91736e-06
8.89539e-06
8.87444e-06
8.85444e-06
8.83533e-06
8.81704e-06
8.7995e-06
8.78266e-06
8.76646e-06
8.75086e-06
8.7358e-06
8.72123e-06
8.7071e-06
8.69334e-06
8.67993e-06
8.66679e-06
8.65393e-06
8.6413e-06
8.62894e-06
8.61685e-06
8.60506e-06
8.59359e-06
8.58253e-06
8.57194e-06
8.56191e-06
8.55254e-06
8.54409e-06
8.53701e-06
8.53168e-06
8.52893e-06
8.52935e-06
8.5342e-06
8.54508e-06
8.66578e-06
8.6805e-06
8.70205e-06
8.72783e-06
8.75589e-06
8.78555e-06
8.81577e-06
8.84626e-06
8.87668e-06
8.90686e-06
8.93685e-06
8.96668e-06
8.99641e-06
9.02606e-06
9.05563e-06
9.08508e-06
9.11436e-06
9.14338e-06
9.17208e-06
9.20038e-06
9.22817e-06
9.25535e-06
9.28181e-06
9.30744e-06
9.33209e-06
9.35564e-06
9.37796e-06
9.39893e-06
9.41845e-06
9.43641e-06
9.45271e-06
9.46726e-06
9.48e-06
9.49086e-06
9.49978e-06
9.50672e-06
9.51165e-06
9.51455e-06
9.51541e-06
9.51424e-06
9.51105e-06
9.50587e-06
9.49874e-06
9.48973e-06
9.47889e-06
9.46633e-06
9.45212e-06
9.4364e-06
9.41928e-06
9.4009e-06
9.38142e-06
9.361e-06
9.33982e-06
9.31804e-06
9.29586e-06
9.27347e-06
9.25103e-06
9.22873e-06
9.20672e-06
9.18515e-06
9.16415e-06
9.1438e-06
9.12419e-06
9.10535e-06
9.08729e-06
9.07002e-06
9.05333e-06
9.03716e-06
9.02145e-06
9.00611e-06
8.99106e-06
8.97625e-06
8.96163e-06
8.94715e-06
8.93277e-06
8.91847e-06
8.90424e-06
8.89001e-06
8.87579e-06
8.86152e-06
8.8472e-06
8.83278e-06
8.81827e-06
8.80367e-06
8.789e-06
8.7743e-06
8.75962e-06
8.74501e-06
8.73055e-06
8.71633e-06
8.70246e-06
8.68906e-06
8.67641e-06
8.66498e-06
8.65522e-06
8.64797e-06
8.64391e-06
8.64434e-06
8.65093e-06
8.77298e-06
8.78335e-06
8.80081e-06
8.82257e-06
8.8466e-06
8.87216e-06
8.89821e-06
8.92447e-06
8.95059e-06
8.97645e-06
9.00211e-06
9.02764e-06
9.05309e-06
9.07853e-06
9.10397e-06
9.12938e-06
9.15474e-06
9.17998e-06
9.20503e-06
9.22983e-06
9.25429e-06
9.2783e-06
9.30178e-06
9.3246e-06
9.34664e-06
9.36778e-06
9.3879e-06
9.40691e-06
9.42469e-06
9.44115e-06
9.45622e-06
9.46981e-06
9.48188e-06
9.49237e-06
9.50124e-06
9.50846e-06
9.51402e-06
9.51792e-06
9.52015e-06
9.52075e-06
9.51973e-06
9.51714e-06
9.51302e-06
9.50745e-06
9.50049e-06
9.49222e-06
9.48275e-06
9.47217e-06
9.46059e-06
9.44813e-06
9.43492e-06
9.42109e-06
9.40677e-06
9.39209e-06
9.37719e-06
9.3622e-06
9.34724e-06
9.33242e-06
9.31784e-06
9.30357e-06
9.28968e-06
9.2762e-06
9.26314e-06
9.25051e-06
9.23825e-06
9.22634e-06
9.21451e-06
9.20272e-06
9.19088e-06
9.17891e-06
9.16673e-06
9.15429e-06
9.14154e-06
9.12844e-06
9.11499e-06
9.10117e-06
9.08697e-06
9.07237e-06
9.05738e-06
9.04197e-06
9.02615e-06
9.0099e-06
8.99323e-06
8.97616e-06
8.95873e-06
8.94099e-06
8.92301e-06
8.90486e-06
8.88665e-06
8.86846e-06
8.85043e-06
8.8327e-06
8.81555e-06
8.7995e-06
8.78504e-06
8.77306e-06
8.7643e-06
8.76011e-06
8.76226e-06
8.88616e-06
8.89216e-06
8.90563e-06
8.92355e-06
8.94378e-06
8.96553e-06
8.98775e-06
9.01015e-06
9.03241e-06
9.05442e-06
9.07626e-06
9.09801e-06
9.11977e-06
9.1416e-06
9.16355e-06
9.18562e-06
9.20778e-06
9.22998e-06
9.25216e-06
9.27428e-06
9.29623e-06
9.31795e-06
9.33933e-06
9.36026e-06
9.38063e-06
9.40032e-06
9.41923e-06
9.43726e-06
9.45431e-06
9.4703e-06
9.48516e-06
9.49883e-06
9.51126e-06
9.5224e-06
9.53223e-06
9.54072e-06
9.54787e-06
9.55369e-06
9.55818e-06
9.56138e-06
9.5633e-06
9.56399e-06
9.56351e-06
9.56191e-06
9.55926e-06
9.55562e-06
9.55109e-06
9.54574e-06
9.53966e-06
9.53295e-06
9.52571e-06
9.51803e-06
9.51e-06
9.50173e-06
9.4933e-06
9.48479e-06
9.47628e-06
9.46783e-06
9.45949e-06
9.45129e-06
9.44325e-06
9.43535e-06
9.42758e-06
9.41988e-06
9.41219e-06
9.40444e-06
9.39633e-06
9.38783e-06
9.37885e-06
9.3693e-06
9.3591e-06
9.3482e-06
9.33655e-06
9.32414e-06
9.31095e-06
9.29698e-06
9.28225e-06
9.26674e-06
9.25048e-06
9.23346e-06
9.21571e-06
9.19721e-06
9.17799e-06
9.15808e-06
9.13754e-06
9.11643e-06
9.09484e-06
9.07286e-06
9.0506e-06
9.02818e-06
9.00575e-06
8.98345e-06
8.96159e-06
8.94072e-06
8.92137e-06
8.90448e-06
8.89087e-06
8.88195e-06
8.87958e-06
9.00586e-06
9.00757e-06
9.01719e-06
9.03149e-06
9.04822e-06
9.0665e-06
9.08528e-06
9.10427e-06
9.12313e-06
9.14179e-06
9.16034e-06
9.1789e-06
9.19756e-06
9.21643e-06
9.23555e-06
9.25495e-06
9.27462e-06
9.29452e-06
9.3146e-06
9.3348e-06
9.35505e-06
9.37528e-06
9.39538e-06
9.41526e-06
9.4348e-06
9.4539e-06
9.47245e-06
9.49036e-06
9.50754e-06
9.52391e-06
9.53941e-06
9.55398e-06
9.56756e-06
9.58014e-06
9.59167e-06
9.60215e-06
9.61156e-06
9.61993e-06
9.62725e-06
9.63355e-06
9.63886e-06
9.64321e-06
9.64665e-06
9.64923e-06
9.651e-06
9.65202e-06
9.65235e-06
9.65207e-06
9.65123e-06
9.6499e-06
9.64816e-06
9.64606e-06
9.64369e-06
9.64109e-06
9.63832e-06
9.63542e-06
9.63244e-06
9.6294e-06
9.62631e-06
9.62316e-06
9.61994e-06
9.61661e-06
9.61311e-06
9.60938e-06
9.60532e-06
9.60079e-06
9.59555e-06
9.58954e-06
9.58266e-06
9.57482e-06
9.56594e-06
9.55596e-06
9.54485e-06
9.53259e-06
9.51917e-06
9.50461e-06