/*--------------------------------*- C++ -*----------------------------------*\
| =========                 |                                                 |
| \\      /  F ield         | OpenFOAM: The Open Source CFD Toolbox           |
|  \\    /   O peration     | Version:  2.4.0                                 |
|   \\  /    A nd           | Web:      www.OpenFOAM.org                      |
|    \\/     M anipulation  |                                                 |
\*---------------------------------------------------------------------------*/
FoamFile
{
    version     2.0;
    format      ascii;
    class       surfaceScalarField;
    location    "90";
    object      phi;
}
// * * * * * * * * * * * * * * * * * * * * * * * * * * * * * * * * * * * * * //

dimensions      [0 3 -1 0 0 0 0];

internalField   nonuniform List<scalar> 
156040
(
2.9894882e-07
-4.5251513e-08
3.5521946e-07
-5.6270632e-08
3.7115826e-07
-1.5938788e-08
3.5867156e-07
1.2486708e-08
2.8995618e-07
6.871538e-08
1.8452414e-07
1.0543205e-07
5.3102986e-08
1.3142116e-07
-6.1788864e-08
1.1489185e-07
-1.1722113e-07
5.5432274e-08
-1.2038196e-07
3.1608349e-09
-1.0046691e-07
-1.9915055e-08
-8.0530796e-08
-1.9936065e-08
-6.4329601e-08
-1.6201235e-08
-5.4582594e-08
-9.7469919e-09
-4.8693668e-08
-5.8889448e-09
-4.4596305e-08
-4.0973986e-09
-4.1675324e-08
-2.9209473e-09
-3.9343557e-08
-2.3317691e-09
-3.7219715e-08
-2.1238458e-09
-3.523651e-08
-1.983206e-09
-3.3365506e-08
-1.8710042e-09
-3.1711292e-08
-1.6542156e-09
-3.042011e-08
-1.2911841e-09
-2.9623166e-08
-7.9694812e-10
-2.9183272e-08
-4.3989276e-10
-2.9081927e-08
-1.0133115e-10
-2.9320754e-08
2.3881198e-10
-2.993129e-08
6.1054021e-10
-3.0918306e-08
9.8700933e-10
-3.2331391e-08
1.413091e-09
-3.4163066e-08
1.8316681e-09
-3.6449981e-08
2.2869159e-09
-3.917301e-08
2.7230294e-09
-4.2307449e-08
3.1344384e-09
-4.5761267e-08
3.4538173e-09
-4.9324886e-08
3.5636177e-09
-5.2834452e-08
3.5095656e-09
-5.6343611e-08
3.5091579e-09
-5.984417e-08
3.5005565e-09
-6.327214e-08
3.4279687e-09
-6.665273e-08
3.3864441e-09
-6.9695489e-08
3.042769e-09
-7.2629076e-08
2.9335889e-09
-7.5201293e-08
2.5722161e-09
-7.7247831e-08
2.0465383e-09
-7.8946288e-08
1.6984574e-09
-8.0072101e-08
1.1258133e-09
-8.0976839e-08
9.0473781e-10
-8.1803693e-08
8.2685391e-10
-8.2413784e-08
6.1009076e-10
-8.261141e-08
1.9762575e-10
-8.2313721e-08
-2.9768902e-10
-8.1398041e-08
-9.1567961e-10
-7.9854176e-08
-1.5438648e-09
-7.7609402e-08
-2.2447735e-09
-7.4764501e-08
-2.8449009e-09
-7.133808e-08
-3.4264212e-09
-6.7714451e-08
-3.6236296e-09
-6.4124999e-08
-3.5894514e-09
-6.1635227e-08
-2.4897723e-09
-6.104767e-08
-5.8755667e-10
-6.6202836e-08
5.1551652e-09
-8.626292e-08
2.0060085e-08
-1.0802195e-07
2.1759028e-08
-1.2623307e-07
1.8211125e-08
-1.4267774e-07
1.6444669e-08
-1.5760701e-07
1.4929266e-08
-1.7118743e-07
1.3580428e-08
-1.8360692e-07
1.2419489e-08
-1.9498887e-07
1.1381942e-08
-2.054918e-07
1.0502939e-08
-2.1520296e-07
9.7111551e-09
-2.2424225e-07
9.0392929e-09
-2.3267341e-07
8.4311617e-09
-2.4058399e-07
7.9105768e-09
-2.480167e-07
7.4327096e-09
-2.550282e-07
7.0114996e-09
-2.6164576e-07
6.6175582e-09
-2.6790673e-07
6.2609701e-09
-2.7383077e-07
5.924041e-09
-2.7944329e-07
5.6125216e-09
-2.8475571e-07
5.3124213e-09
-2.897839e-07
5.0281901e-09
-2.9453514e-07
4.7512372e-09
-2.9901909e-07
4.4839456e-09
-3.0323746e-07
4.2183697e-09
-3.0719397e-07
3.9565184e-09
-3.1089943e-07
3.7054547e-09
-3.1436528e-07
3.4658473e-09
-3.1758941e-07
3.2241392e-09
-3.2057473e-07
2.9853117e-09
-3.2332228e-07
2.7475575e-09
-3.2583669e-07
2.5144032e-09
-3.2811786e-07
2.2811698e-09
-3.3017025e-07
2.0523912e-09
-3.3199364e-07
1.8233943e-09
-3.3359544e-07
1.6017966e-09
-3.3497386e-07
1.3784233e-09
-3.3613865e-07
1.1647869e-09
-3.3709499e-07
9.5634445e-10
-3.3786302e-07
7.68031e-10
-3.3845649e-07
5.9346952e-10
-3.3888772e-07
4.3122419e-10
-3.3917898e-07
2.9125944e-10
-3.3933015e-07
1.5117317e-10
-3.3932556e-07
-4.5889162e-12
-3.3908979e-07
-2.3577232e-10
-3.3854867e-07
-5.4111612e-10
-3.3773572e-07
-8.1295744e-10
-3.3672094e-07
-1.0147757e-09
-3.3551842e-07
-1.2025171e-09
-3.3414212e-07
-1.3763006e-09
-3.3259515e-07
-1.5469766e-09
-3.3088754e-07
-1.7076089e-09
-3.2902484e-07
-1.8626973e-09
-3.2701216e-07
-2.0126827e-09
-3.2484991e-07
-2.1622516e-09
-3.2254281e-07
-2.3070924e-09
-3.2009456e-07
-2.4482551e-09
-3.1751514e-07
-2.5794176e-09
-3.1480845e-07
-2.7066867e-09
-3.1198015e-07
-2.8283026e-09
-3.0903191e-07
-2.9482413e-09
-3.0597502e-07
-3.0568863e-09
-3.028132e-07
-3.1618277e-09
-2.9955406e-07
-3.2591398e-09
-2.9619568e-07
-3.3583738e-09
-2.9275015e-07
-3.4455368e-09
-2.8921949e-07
-3.5306534e-09
-2.856126e-07
-3.6068939e-09
-2.8192941e-07
-3.683188e-09
-2.7817727e-07
-3.752144e-09
-2.7435988e-07
-3.8173854e-09
-2.7048385e-07
-3.8760259e-09
-2.6655461e-07
-3.9292475e-09
-2.6257204e-07
-3.9825675e-09
-2.5854133e-07
-4.0307093e-09
-2.5446321e-07
-4.0781239e-09
-2.5034897e-07
-4.1142392e-09
-2.4619765e-07
-4.1513167e-09
-2.4201615e-07
-4.1814984e-09
-2.3780474e-07
-4.2114097e-09
-2.3357081e-07
-4.2339286e-09
-2.2931702e-07
-4.2537922e-09
-2.2504698e-07
-4.2700445e-09
-2.207626e-07
-4.2843805e-09
-2.1646653e-07
-4.2960711e-09
-2.1216585e-07
-4.3006759e-09
-2.0786142e-07
-4.3044327e-09
-2.0356359e-07
-4.2978288e-09
-1.9926526e-07
-4.2983299e-09
-1.9497871e-07
-4.2865494e-09
-1.9069872e-07
-4.2799871e-09
-1.8644048e-07
-4.2582399e-09
-1.8219639e-07
-4.2440964e-09
-1.7797425e-07
-4.2221369e-09
-1.7376812e-07
-4.2061281e-09
-1.6958438e-07
-4.1837469e-09
-1.6542513e-07
-4.1592429e-09
-1.6128869e-07
-4.1364406e-09
-1.5717696e-07
-4.1117324e-09
-1.5308553e-07
-4.091431e-09
-1.4903119e-07
-4.0543346e-09
-1.4502133e-07
-4.0098657e-09
-1.4104583e-07
-3.9754937e-09
-1.3710533e-07
-3.9405078e-09
-1.3320868e-07
-3.896651e-09
-1.2935457e-07
-3.8541073e-09
-1.2553958e-07
-3.8149895e-09
-1.2175866e-07
-3.7809182e-09
-1.1801706e-07
-3.7415995e-09
-1.1432188e-07
-3.6951791e-09
-1.1067048e-07
-3.6514023e-09
-1.0707264e-07
-3.5978453e-09
-1.0352328e-07
-3.5493585e-09
-1.0003948e-07
-3.4838045e-09
-9.6610091e-08
-3.4293897e-09
-9.3243506e-08
-3.3665836e-09
-8.992071e-08
-3.3227973e-09
-8.6666086e-08
-3.254623e-09
-8.3467134e-08
-3.1989526e-09
-8.0336777e-08
-3.1303541e-09
-7.7250355e-08
-3.0864211e-09
-7.4236116e-08
-3.0142371e-09
-7.1282268e-08
-2.9538458e-09
-6.8405799e-08
-2.8764674e-09
-6.5584796e-08
-2.8210002e-09
-6.2843209e-08
-2.7415853e-09
-6.0173623e-08
-2.6695848e-09
-5.7598628e-08
-2.574994e-09
-5.5099679e-08
-2.4989474e-09
-5.2709478e-08
-2.3902003e-09
-5.0411162e-08
-2.2983141e-09
-4.8243413e-08
-2.1677487e-09
-4.6176454e-08
-2.0669582e-09
-4.4262046e-08
-1.9144078e-09
-4.2466272e-08
-1.7957738e-09
-4.0866897e-08
-1.5993749e-09
-3.9418344e-08
-1.4485525e-09
-3.8222887e-08
-1.1954568e-09
-3.7211262e-08
-1.0116245e-09
-3.6523496e-08
-6.8776525e-10
-3.6067621e-08
-4.558744e-10
-3.6038693e-08
-2.8928035e-11
-3.6296209e-08
2.5751721e-10
-3.7044473e-08
7.4826378e-10
-3.7998557e-08
9.5408417e-10
-3.9653552e-08
1.6549945e-09
-4.0461244e-08
8.0769189e-10
-4.1102462e-08
6.412176e-10
-4.0971962e-08
-1.3050004e-10
-4.0394146e-08
-5.7781604e-10
-3.9162484e-08
-1.2316625e-09
-3.7471585e-08
-1.6908986e-09
-3.5199785e-08
-2.2717998e-09
-3.2474175e-08
-2.7256104e-09
-2.9204254e-08
-3.2699205e-09
-2.5464964e-08
-3.7392902e-09
-2.1169417e-08
-4.2955471e-09
-1.636665e-08
-4.8027667e-09
-1.0969147e-08
-5.3975024e-09
-4.9870329e-09
-5.9821137e-09
1.7625109e-09
-6.749547e-09
9.2150111e-09
-7.4524957e-09
1.7353437e-08
-8.1384313e-09
2.611965e-08
-8.7662056e-09
3.5507601e-08
-9.3879564e-09
4.5468781e-08
-9.9611727e-09
5.5988022e-08
-1.0519246e-08
6.7009119e-08
-1.1021089e-08
7.8454307e-08
-1.144521e-08
9.0266463e-08
-1.1812134e-08
1.0230651e-07
-1.2040047e-08
1.1432743e-07
-1.2020916e-08
1.2574054e-07
-1.1413107e-08
1.3647684e-07
-1.0736296e-08
1.4679906e-07
-1.0322213e-08
1.5690287e-07
-1.0103801e-08
1.6693313e-07
-1.0030254e-08
1.7696609e-07
-1.0032943e-08
1.8722359e-07
-1.0257556e-08
1.9758467e-07
-1.0361001e-08
2.0854181e-07
-1.0957239e-08
2.1990003e-07
-1.1358069e-08
2.3221808e-07
-1.2317992e-08
2.4570664e-07
-1.3488517e-08
2.6137937e-07
-1.5671702e-08
2.8045151e-07
-1.9073095e-08
3.0331173e-07
-2.2860227e-08
3.3001017e-07
-2.6698468e-08
3.6172977e-07
-3.1719628e-08
3.9839049e-07
-3.6660742e-08
4.4213475e-07
-4.3744163e-08
4.9278413e-07
-5.0649594e-08
5.5378774e-07
-6.1003733e-08
6.2581198e-07
-7.2025413e-08
7.1301499e-07
-8.7203243e-08
8.1106812e-07
-9.8069898e-08
9.19786e-07
-1.0870118e-07
1.0204079e-06
-1.006216e-07
1.082387e-06
-6.1978744e-08
1.0527905e-06
2.9596594e-08
9.5902827e-07
9.3762394e-08
8.1659737e-07
1.4243095e-07
6.6724056e-07
1.4935682e-07
5.1623783e-07
1.5100275e-07
4.0081595e-07
1.1542189e-07
3.06493e-07
9.4322937e-08
2.6573829e-07
4.0754718e-08
1.2040989e-08
9.5668671e-07
-1.7605066e-07
1.1045472e-06
-2.0413116e-07
1.1750686e-06
-8.6460165e-08
1.1193736e-06
6.8181698e-08
9.2359426e-07
2.6449475e-07
5.9163073e-07
4.3739558e-07
1.9338556e-07
5.2966633e-07
-1.718501e-07
4.8012752e-07
-3.499755e-07
2.3355767e-07
-3.7012619e-07
2.331151e-08
-3.0953116e-07
-8.0510098e-08
-2.5044839e-07
-7.9018836e-08
-1.9959441e-07
-6.7055163e-08
-1.7022244e-07
-3.9119017e-08
-1.5134961e-07
-2.4761792e-08
-1.3910718e-07
-1.6339775e-08
-1.2967607e-07
-1.2352079e-08
-1.2271386e-07
-9.293976e-09
-1.1593557e-07
-8.9021402e-09
-1.0996095e-07
-7.957823e-09
-1.0407491e-07
-7.7570434e-09
-9.9068324e-08
-6.6607981e-09
-9.5034831e-08
-5.3246748e-09
-9.264284e-08
-3.1889371e-09
-9.1279541e-08
-1.8031912e-09
-9.102752e-08
-3.533581e-10
-9.1807619e-08
1.0189174e-09
-9.3753697e-08
2.5566178e-09
-9.6869734e-08
4.1030496e-09
-1.013051e-07
5.8484545e-09
-1.0704551e-07
7.5720829e-09
-1.1419553e-07
9.4369303e-09
-1.2268622e-07
1.1213727e-08
-1.3245228e-07
1.2900498e-08
-1.4318021e-07
1.4181743e-08
-1.5425737e-07
1.4640776e-08
-1.6518884e-07
1.4441044e-08
-1.7611193e-07
1.4432241e-08
-1.8698081e-07
1.4369444e-08
-1.9761476e-07
1.4061905e-08
-2.0802657e-07
1.3798331e-08
-2.1767748e-07
1.2693705e-08
-2.2676456e-07
1.2020678e-08
-2.3478403e-07
1.0591677e-08
-2.412942e-07
8.5567145e-09
-2.4652351e-07
6.9277602e-09
-2.5015686e-07
4.7591703e-09
-2.5306598e-07
3.8138494e-09
-2.5575753e-07
3.5184061e-09
-2.5780333e-07
2.6558877e-09
-2.5856348e-07
9.5778415e-10
-2.5785539e-07
-1.0057788e-09
-2.5520198e-07
-3.5690984e-09
-2.5069284e-07
-6.053004e-09
-2.4395725e-07
-8.9803629e-09
-2.355255e-07
-1.1276644e-08
-2.2516848e-07
-1.3783442e-08
-2.1448805e-07
-1.4304061e-08
-2.0366735e-07
-1.4410158e-08
-1.9678608e-07
-9.3710365e-09
-1.9537404e-07
-1.9996e-09
-2.1279381e-07
2.2574935e-08
-2.7423842e-07
8.1504698e-08
-3.4169094e-07
8.9211549e-08
-3.9782338e-07
7.4343556e-08
-4.4883062e-07
6.745191e-08
-4.9483377e-07
6.0932419e-08
-5.3687791e-07
5.5624565e-08
-5.7514366e-07
5.0685244e-08
-6.1033593e-07
4.6574208e-08
-6.4269919e-07
4.2866196e-08
-6.7269981e-07
3.971178e-08
-7.0054903e-07
3.6888514e-08
-7.2656985e-07
3.4451982e-08
-7.5094088e-07
3.2281603e-08
-7.7386253e-07
3.0354359e-08
-7.9545234e-07
2.8601314e-08
-8.1584191e-07
2.7007129e-08
-8.3511081e-07
2.5529871e-08
-8.5334755e-07
2.4160778e-08
-8.7060636e-07
2.2871325e-08
-8.869425e-07
2.1648567e-08
-9.023916e-07
2.0477289e-08
-9.1698833e-07
1.9347966e-08
-9.3075102e-07
1.8246639e-08
-9.4369567e-07
1.716302e-08
-9.5581841e-07
1.607926e-08
-9.6716471e-07
1.5051754e-08
-9.7777091e-07
1.4072049e-08
-9.8762573e-07
1.307896e-08
-9.9673848e-07
1.2098054e-08
-1.0051135e-06
1.11226e-08
-1.0127622e-06
1.0163119e-08
-1.0196892e-06
9.2081184e-09
-1.0259072e-06
8.2703585e-09
-1.0314212e-06
7.3374338e-09
-1.0362484e-06
6.4289722e-09
-1.0403898e-06
5.5198436e-09
-1.0438695e-06
4.6445506e-09
-1.0467108e-06
3.7976415e-09
-1.048969e-06
3.0261418e-09
-1.0506826e-06
2.3071356e-09
-1.051895e-06
1.643632e-09
-1.0526742e-06
1.0704064e-09
-1.0530274e-06
5.044075e-10
-1.0529119e-06
-1.201013e-10
-1.0520858e-06
-1.0618242e-09
-1.0502946e-06
-2.3323707e-09
-1.0476613e-06
-3.4462233e-09
-1.0444017e-06
-4.2743565e-09
-1.0405611e-06
-5.0431226e-09
-1.0361834e-06
-5.754003e-09
-1.0312822e-06
-6.4482295e-09
-1.0258836e-06
-7.1061904e-09
-1.0200028e-06
-7.7434672e-09
-1.0136555e-06
-8.3600287e-09
-1.0068493e-06
-8.9684134e-09
-9.9959998e-07
-9.5564395e-09
-9.9192139e-07
-1.0126847e-08
-9.8383734e-07
-1.0663473e-08
-9.7536157e-07
-1.1182453e-08
-9.6651127e-07
-1.1678599e-08
-9.5729774e-07
-1.2161771e-08
-9.4774736e-07
-1.2607272e-08
-9.3787343e-07
-1.3035759e-08
-9.2769589e-07
-1.343667e-08
-9.1721998e-07
-1.3834286e-08
-9.0647269e-07
-1.4192826e-08
-8.9546452e-07
-1.4538829e-08
-8.842171e-07
-1.485431e-08
-8.7273768e-07
-1.5162611e-08
-8.6104542e-07
-1.5444399e-08
-8.4915328e-07
-1.5709526e-08
-8.3707859e-07
-1.5950717e-08
-8.2483599e-07
-1.6171851e-08
-8.1243149e-07
-1.6387063e-08
-7.998795e-07
-1.6582699e-08
-7.8718753e-07
-1.67701e-08
-7.7438017e-07
-1.6921599e-08
-7.6146331e-07
-1.7068172e-08
-7.4845323e-07
-1.7191577e-08
-7.3535502e-07
-1.7309621e-08
-7.2218656e-07
-1.7402386e-08
-7.0895794e-07
-1.7482417e-08
-6.9568004e-07
-1.7547947e-08
-6.823614e-07
-1.7603021e-08
-6.6901142e-07
-1.7646044e-08
-6.5564693e-07
-1.766517e-08
-6.422745e-07
-1.7676859e-08
-6.2891522e-07
-1.7657112e-08
-6.1556261e-07
-1.7650943e-08
-6.0224078e-07
-1.760838e-08
-5.889461e-07
-1.7574668e-08
-5.7570664e-07
-1.7497695e-08
-5.625139e-07
-1.7436838e-08
-5.4938327e-07
-1.7352764e-08
-5.3630851e-07
-1.7280891e-08
-5.2330243e-07
-1.718983e-08
-5.1037101e-07
-1.7090663e-08
-4.975138e-07
-1.699365e-08
-4.8473673e-07
-1.6888802e-08
-4.7203869e-07
-1.6789468e-08
-4.5944997e-07
-1.6643053e-08
-4.4698483e-07
-1.6475008e-08
-4.3462988e-07
-1.6330439e-08
-4.2238867e-07
-1.6181724e-08
-4.1027761e-07
-1.6007707e-08
-3.9829455e-07
-1.5837169e-08
-3.8643638e-07
-1.5673158e-08
-3.7469551e-07
-1.5521793e-08
-3.6308393e-07
-1.5353184e-08
-3.51614e-07
-1.5165106e-08
-3.402868e-07
-1.4978605e-08
-3.2911948e-07
-1.4765166e-08
-3.1810973e-07
-1.4559108e-08
-3.0728486e-07
-1.430868e-08
-2.9663144e-07
-1.4082808e-08
-2.8616084e-07
-1.3837188e-08
-2.7584774e-07
-1.3635893e-08
-2.6572896e-07
-1.3373402e-08
-2.5579075e-07
-1.3137159e-08
-2.4605007e-07
-1.2871032e-08
-2.3647609e-07
-1.2660406e-08
-2.2710928e-07
-1.2381047e-08
-2.1794329e-07
-1.2119827e-08
-2.0899839e-07
-1.1821365e-08
-2.0025612e-07
-1.1563271e-08
-1.9174536e-07
-1.1252344e-08
-1.8347783e-07
-1.0937107e-08
-1.7547759e-07
-1.0575237e-08
-1.6774653e-07
-1.0230003e-08
-1.6032013e-07
-9.8166002e-09
-1.5321353e-07
-9.4049104e-09
-1.4646601e-07
-8.9152702e-09
-1.4008528e-07
-8.447692e-09
-1.3412531e-07
-7.8743757e-09
-1.2860653e-07
-7.3145541e-09
-1.2361818e-07
-6.5877235e-09
-1.1918681e-07
-5.8799225e-09
-1.1543308e-07
-4.9491858e-09
-1.1237241e-07
-4.0722888e-09
-1.1018164e-07
-2.8785361e-09
-1.0886849e-07
-1.7690268e-09
-1.0870567e-07
-1.9174243e-10
-1.0963489e-07
1.1867324e-09
-1.1187269e-07
2.9860669e-09
-1.1503391e-07
4.1153071e-09
-1.2005026e-07
6.6713376e-09
-1.2268506e-07
3.4424948e-09
-1.2448346e-07
2.4396166e-09
-1.2413321e-07
-4.8075344e-10
-1.2217028e-07
-2.5407479e-09
-1.1837175e-07
-5.030189e-09
-1.1298148e-07
-7.0811672e-09
-1.0593881e-07
-9.3144736e-09
-9.7364114e-08
-1.1300303e-08
-8.7216365e-08
-1.341767e-08
-7.5520719e-08
-1.5434936e-08
-6.2194752e-08
-1.7621513e-08
-4.7227395e-08
-1.9770124e-08
-3.0490321e-08
-2.2134576e-08
-1.1886648e-08
-2.4585786e-08
9.0191194e-09
-2.7655318e-08
3.2132309e-08
-3.056568e-08
5.7314761e-08
-3.3320889e-08
8.4447285e-08
-3.5898722e-08
1.1345932e-07
-3.84e-08
1.4424875e-07
-4.075059e-08
1.767346e-07
-4.3005105e-08
2.1077035e-07
-4.5056826e-08
2.4613294e-07
-4.6807823e-08
2.8260389e-07
-4.8283061e-08
3.1975599e-07
-4.919214e-08
3.5680296e-07
-4.9067879e-08
3.920547e-07
-4.6664848e-08
4.252674e-07
-4.3948991e-08
4.5721736e-07
-4.2272169e-08
4.8845516e-07
-4.1341593e-08
5.1939278e-07
-4.0967862e-08
5.5036413e-07
-4.1004276e-08
5.8184497e-07
-4.1738448e-08
6.1390751e-07
-4.242345e-08
6.4751555e-07
-4.4565376e-08
6.8268128e-07
-4.6523647e-08
7.2066395e-07
-5.0300596e-08
7.624131e-07
-5.5237597e-08
8.1092195e-07
-6.4179455e-08
8.6981739e-07
-7.796955e-08
9.3965567e-07
-9.2698522e-08
1.0220647e-06
-1.0910757e-07
1.1187344e-06
-1.2838936e-07
1.2313835e-06
-1.4930984e-07
1.3638558e-06
-1.7621637e-07
1.5193264e-06
-2.0612045e-07
1.7045133e-06
-2.4619074e-07
1.9261088e-06
-2.936223e-07
2.1907077e-06
-3.5180252e-07
2.4929238e-06
-4.0030372e-07
2.8223441e-06
-4.3810375e-07
3.1343428e-06
-4.1261993e-07
3.3206017e-06
-2.4823719e-07
3.2484092e-06
1.0178929e-07
2.9660961e-06
3.7607567e-07
2.5516874e-06
5.5683967e-07
2.0881342e-06
6.1291007e-07
1.6429553e-06
5.9618168e-07
1.2688233e-06
4.8955389e-07
9.9905726e-07
3.6408897e-07
8.4193432e-07
1.9787767e-07
2.8087753e-08
1.6958707e-06
-3.9104926e-07
1.9294025e-06
-4.3766297e-07
2.0636811e-06
-2.2073874e-07
1.9569219e-06
1.7494099e-07
1.6315764e-06
5.898402e-07
1.0570256e-06
1.0119464e-06
3.7384861e-07
1.2128434e-06
-2.6810562e-07
1.1220818e-06
-5.8870064e-07
5.5415271e-07
-6.3627289e-07
7.088377e-08
-5.3468966e-07
-1.8209332e-07
-4.3497217e-07
-1.7873627e-07
-3.4672795e-07
-1.5529945e-07
-2.9638706e-07
-8.9459878e-08
-2.6322505e-07
-5.7923818e-08
-2.4229428e-07
-3.7270611e-08
-2.2567311e-07
-2.8973196e-08
-2.1377521e-07
-2.1191881e-08
-2.0189172e-07
-2.0785642e-08
-1.9165481e-07
-1.8194735e-08
-1.8139766e-07
-1.8014188e-08
-1.7280734e-07
-1.5251126e-08
-1.6580036e-07
-1.2331653e-08
-1.6171323e-07
-7.2760813e-09
-1.5936359e-07
-4.1528263e-09
-1.5898707e-07
-7.2985567e-10
-1.603898e-07
2.4216158e-09
-1.6382632e-07
5.9931504e-09
-1.6929732e-07
9.5740344e-09
-1.7705689e-07
1.3608036e-08
-1.8708588e-07
1.7601061e-08
-1.9955757e-07
2.1908622e-08
-2.1434459e-07
2.6000748e-08
-2.3133943e-07
2.9895336e-08
-2.4997859e-07
3.2820904e-08
-2.6922962e-07
3.3891806e-08
-2.8824783e-07
3.3459252e-08
-3.0724179e-07
3.3426193e-08
-3.2612049e-07
3.324814e-08
-3.4458835e-07
3.252977e-08
-3.6261088e-07
3.182084e-08
-3.7951481e-07
2.9597633e-08
-3.9529083e-07
2.7796708e-08
-4.092555e-07
2.4556341e-08
-4.2069888e-07
2.00001e-08
-4.2979066e-07
1.6019541e-08
-4.3625734e-07
1.1225847e-08
-4.414498e-07
9.0063086e-09
-4.4628438e-07
8.3529886e-09
-4.5003062e-07
6.4021305e-09
-4.515624e-07
2.4895635e-09
-4.5061376e-07
-1.9544201e-09
-4.463001e-07
-7.8827636e-09
-4.3885266e-07
-1.350044e-08
-4.2754706e-07
-2.0285963e-08
-4.134434e-07
-2.5380301e-08
-3.9597251e-07
-3.1254335e-08
-3.7816739e-07
-3.2109179e-08
-3.6003291e-07
-3.2544634e-08
-3.4912572e-07
-2.0278227e-08
-3.475851e-07
-3.5402291e-09
-3.7941745e-07
5.4407289e-08
-4.8522148e-07
1.8730872e-07
-6.0184619e-07
2.0583627e-07
-6.9880166e-07
1.7129902e-07
-7.8707353e-07
1.5572377e-07
-8.6647158e-07
1.4033048e-07
-9.3914724e-07
1.2830022e-07
-1.0051628e-06
1.1670084e-07
-1.065947e-06
1.0735841e-07
-1.1217673e-06
9.868641e-08
-1.1735567e-06
9.1501189e-08
-1.2215759e-06
8.490775e-08
-1.2664671e-06
7.934314e-08
-1.3084809e-06
7.4295443e-08
-1.3480047e-06
6.987814e-08
-1.3852052e-06
6.5801846e-08
-1.4203402e-06
6.2142139e-08
-1.453524e-06
5.8713652e-08
-1.4849271e-06
5.5563923e-08
-1.5146276e-06
5.2571829e-08
-1.5427339e-06
4.9754841e-08
-1.5692988e-06
4.7042204e-08
-1.5943903e-06
4.4439408e-08
-1.618033e-06
4.1889321e-08
-1.6402613e-06
3.9391404e-08
-1.6610534e-06
3.6871341e-08
-1.6805005e-06
3.4498871e-08
-1.6986712e-06
3.2242685e-08
-1.7155384e-06
2.9946187e-08
-1.7311187e-06
2.7678324e-08
-1.7454206e-06
2.5424515e-08
-1.7584621e-06
2.3204602e-08
-1.7702545e-06
2.1000583e-08
-1.7808194e-06
1.8835252e-08
-1.7901697e-06
1.6687728e-08
-1.798331e-06
1.4590255e-08
-1.8053103e-06
1.24991e-08
-1.811145e-06
1.0479297e-08
-1.8158833e-06
8.5359263e-09
-1.8196131e-06
6.7559409e-09
-1.8223953e-06
5.0893141e-09
-1.8243112e-06
3.5595576e-09
-1.8254786e-06
2.2377965e-09
-1.8259191e-06
9.4489154e-10
-1.8255681e-06
-4.7106655e-10
-1.8239916e-06
-2.6383748e-09
-1.8207205e-06
-5.6034742e-09
-1.8159894e-06
-8.1772509e-09
-1.8101761e-06
-1.0087634e-08
-1.8033594e-06
-1.1859879e-08
-1.7956154e-06
-1.3498018e-08
-1.7869702e-06
-1.5093359e-08
-1.7774659e-06
-1.6610518e-08
-1.7671274e-06
-1.8081977e-08
-1.7559815e-06
-1.9505905e-08
-1.7440462e-06
-2.0903746e-08
-1.731349e-06
-2.2253639e-08
-1.7179158e-06
-2.3560007e-08
-1.7037829e-06
-2.4796373e-08
-1.6889753e-06
-2.5990063e-08
-1.6735225e-06
-2.7131444e-08
-1.6574481e-06
-2.8236159e-08
-1.6407918e-06
-2.9263549e-08
-1.6235781e-06
-3.0249463e-08
-1.6058388e-06
-3.1175985e-08
-1.5875907e-06
-3.2082419e-08
-1.5688731e-06
-3.2910428e-08
-1.5497072e-06
-3.3704663e-08
-1.5301264e-06
-3.4435137e-08
-1.5101483e-06
-3.5140714e-08
-1.4898035e-06
-3.5789232e-08
-1.4691154e-06
-3.6397634e-08
-1.4481118e-06
-3.6954275e-08
-1.4268167e-06
-3.7467e-08
-1.4052447e-06
-3.7959024e-08
-1.3834195e-06
-3.8407878e-08
-1.3613578e-06
-3.8831803e-08
-1.3390949e-06
-3.9184524e-08
-1.3166471e-06
-3.9515922e-08
-1.2940391e-06
-3.9799666e-08
-1.2712825e-06
-4.0066205e-08
-1.2484048e-06
-4.0280097e-08
-1.2254247e-06
-4.0462447e-08
-1.2023609e-06
-4.0611761e-08
-1.1792299e-06
-4.0734081e-08
-1.1560487e-06
-4.0827246e-08
-1.1328428e-06
-4.0871033e-08
-1.1096265e-06
-4.0893137e-08
-1.0864285e-06
-4.0855125e-08
-1.0632485e-06
-4.083095e-08
-1.0401183e-06
-4.0738599e-08
-1.0170405e-06
-4.0652414e-08
-9.9405047e-07
-4.0487754e-08
-9.7114407e-07
-4.0343233e-08
-9.4834157e-07
-4.0155265e-08
-9.2564072e-07
-3.998174e-08
-9.0305883e-07
-3.9771726e-08
-8.8060585e-07
-3.9543644e-08
-8.5828442e-07
-3.9315075e-08
-8.3610464e-07
-3.9068583e-08
-8.1407324e-07
-3.8820868e-08
-7.9222762e-07
-3.8488676e-08
-7.7058679e-07
-3.8115831e-08
-7.4913996e-07
-3.7777277e-08
-7.2789417e-07
-3.7427511e-08
-7.0687026e-07
-3.7031619e-08
-6.8606598e-07
-3.6641449e-08
-6.6548086e-07
-3.6258279e-08
-6.4510744e-07
-3.589521e-08
-6.2496342e-07
-3.5497205e-08
-6.0506373e-07
-3.50648e-08
-5.8541667e-07
-3.4625661e-08
-5.6604275e-07
-3.4139088e-08
-5.4694748e-07
-3.3654385e-08
-5.2816027e-07
-3.3095885e-08
-5.0967281e-07
-3.2570271e-08
-4.9149421e-07
-3.2015789e-08
-4.7360427e-07
-3.1525834e-08
-4.5603961e-07
-3.0938061e-08
-4.3879422e-07
-3.0382551e-08
-4.2188104e-07
-2.978421e-08
-4.0527857e-07
-2.9262871e-08
-3.8902411e-07
-2.8635505e-08
-3.7312799e-07
-2.8015949e-08
-3.5760266e-07
-2.7346692e-08
-3.424505e-07
-2.6715431e-08
-3.2769017e-07
-2.6012669e-08
-3.1336616e-07
-2.5261109e-08
-2.9948841e-07
-2.4452986e-08
-2.8610134e-07
-2.3617073e-08
-2.7322089e-07
-2.2697049e-08
-2.6092006e-07
-2.1705737e-08
-2.4921113e-07
-2.0624205e-08
-2.3817672e-07
-1.9482097e-08
-2.2783656e-07
-1.8214536e-08
-2.1831324e-07
-1.6837877e-08
-2.0965613e-07
-1.524483e-08
-2.0202791e-07
-1.3508146e-08
-1.9550113e-07
-1.147596e-08
-1.902626e-07
-9.3108209e-09
-1.8643949e-07
-6.701648e-09
-1.8424929e-07
-3.9592194e-09
-1.8393236e-07
-5.0867337e-10
-1.8565157e-07
2.9059393e-09
-1.894968e-07
6.831301e-09
-1.9515653e-07
9.7750348e-09
-2.0376656e-07
1.5281371e-08
-2.0841121e-07
8.0871407e-09
-2.1135305e-07
5.3814587e-09
-2.1074698e-07
-1.0868266e-09
-2.0719148e-07
-6.0962473e-09
-2.0059474e-07
-1.1626925e-08
-1.9112864e-07
-1.6547276e-08
-1.7890735e-07
-2.1535758e-08
-1.6395069e-07
-2.6256958e-08
-1.4635023e-07
-3.1018133e-08
-1.2600945e-07
-3.5775713e-08
-1.0291196e-07
-4.0719007e-08
-7.6926692e-08
-4.5755392e-08
-4.7929486e-08
-5.1131781e-08
-1.5661253e-08
-5.6854019e-08
2.0537528e-08
-6.3854102e-08
6.0576998e-08
-7.0605146e-08
1.0415849e-07
-7.6902381e-08
1.5112217e-07
-8.2862402e-08
2.0130573e-07
-8.858356e-08
2.5456658e-07
-9.4011435e-08
3.1074217e-07
-9.9180705e-08
3.6959439e-07
-1.0390903e-07
4.3075534e-07
-1.079688e-07
4.938072e-07
-1.113349e-07
5.5801316e-07
-1.1339809e-07
6.2201262e-07
-1.1306733e-07
6.829824e-07
-1.0763462e-07
7.4047931e-07
-1.014459e-07
7.9581368e-07
-9.760654e-08
8.4991086e-07
-9.5438764e-08
9.0344343e-07
-9.4500415e-08
9.570351e-07
-9.4595935e-08
1.0113872e-06
-9.6090648e-08
1.0669221e-06
-9.7958177e-08
1.1249246e-06
-1.0256799e-07
1.1858396e-06
-1.0743849e-07
1.2515378e-06
-1.1599879e-07
1.3238331e-06
-1.275328e-07
1.407829e-06
-1.4817426e-07
1.5095385e-06
-1.7968004e-07
1.6295663e-06
-2.127264e-07
1.771827e-06
-2.513683e-07
1.9378562e-06
-2.9441852e-07
2.1318856e-06
-3.433393e-07
2.358652e-06
-4.0298262e-07
2.626044e-06
-4.735128e-07
2.9430255e-06
-5.6317232e-07
3.324015e-06
-6.7461309e-07
3.7760559e-06
-8.0384376e-07
4.2949016e-06
-9.191669e-07
4.8561393e-06
-9.9932408e-07
5.3918325e-06
-9.4831277e-07
5.7094707e-06
-5.6587501e-07
5.6044885e-06
2.067717e-07
5.133082e-06
8.4748231e-07
4.445338e-06
1.2445838e-06
3.6516412e-06
1.4066068e-06
2.9013666e-06
1.3464563e-06
2.2447129e-06
1.1462076e-06
1.7920323e-06
8.1676957e-07
1.4974658e-06
4.9244413e-07
4.4681437e-08
2.5219008e-06
-6.8890928e-07
2.8418692e-06
-7.5763136e-07
3.03994e-06
-4.1880948e-07
2.8810396e-06
3.3384139e-07
2.4184138e-06
1.052466e-06
1.5890596e-06
1.8413006e-06
5.9915615e-07
2.2027468e-06
-3.4549141e-07
2.0667293e-06
-8.3208692e-07
1.0407482e-06
-9.1810553e-07
1.5690237e-07
-7.7674645e-07
-3.2345243e-07
-6.3447994e-07
-3.2100279e-07
-5.0653299e-07
-2.8324631e-07
-4.3353103e-07
-1.6246191e-07
-3.8494914e-07
-1.0650574e-07
-3.5457929e-07
-6.7640387e-08
-3.3019579e-07
-5.3356725e-08
-3.1293778e-07
-3.8449893e-08
-2.9556057e-07
-3.816285e-08
-2.8072134e-07
-3.3033962e-08
-2.6577323e-07
-3.29623e-08
-2.5333223e-07
-2.7692118e-08
-2.4314422e-07
-2.2519655e-08
-2.3724857e-07
-1.3171727e-08
-2.3387098e-07
-7.5304221e-09
-2.3340085e-07
-1.1999969e-09
-2.3552592e-07
4.5466956e-09
-2.4062663e-07
1.1093862e-08
-2.4870169e-07
1.76491e-08
-2.6011399e-07
2.5020337e-08
-2.7484165e-07
3.2328723e-08
-2.9312542e-07
4.019239e-08
-3.1477468e-07
4.7650013e-08
-3.3962966e-07
5.4750309e-08
-3.6685995e-07
6.0051199e-08
-3.9498481e-07
6.2016662e-08
-4.2278254e-07
6.1256981e-08
-4.5053697e-07
6.1180624e-08
-4.7810623e-07
6.0817405e-08
-5.0507435e-07
5.9497884e-08
-5.3135815e-07
5.8104687e-08
-5.5613666e-07
5.4376171e-08
-5.7918277e-07
5.0842815e-08
-5.9962207e-07
4.4995643e-08
-6.1646936e-07
3.6847393e-08
-6.2982929e-07
2.9379465e-08
-6.3948462e-07
2.0881176e-08
-6.4728557e-07
1.6807263e-08
-6.5458539e-07
1.5652809e-08
-6.6033007e-07
1.2146803e-08
-6.6289008e-07
5.0495722e-09
-6.6190327e-07
-2.941224e-09
-6.5605972e-07
-1.3726313e-08
-6.4572581e-07
-2.3834356e-08
-6.2983582e-07
-3.6175947e-08
-6.0999153e-07
-4.5224591e-08
-5.8531531e-07
-5.5930556e-08
-5.6032554e-07
-5.7098956e-08
-5.3494852e-07
-5.7921649e-08
-5.203866e-07
-3.4840148e-08
-5.1971884e-07
-4.2079863e-09
-5.6812635e-07
1.028148e-07
-7.2159022e-07
3.4077259e-07
-8.9088167e-07
3.7512772e-07
-1.0317808e-06
3.1219818e-07
-1.1600696e-06
2.8401259e-07
-1.2753318e-06
2.555926e-07
-1.3808537e-06
2.3382217e-07
-1.4766286e-06
2.1247572e-07
-1.5648298e-06
1.9555961e-07
-1.6457819e-06
1.7963846e-07
-1.7208981e-06
1.6661748e-07
-1.7905066e-06
1.5451621e-07
-1.8555838e-06
1.4442032e-07
-1.9164704e-06
1.3518208e-07
-1.9737403e-06
1.2714805e-07
-2.0276217e-06
1.1968318e-07
-2.078502e-06
1.130225e-07
-2.1265368e-06
1.0674843e-07
-2.1719813e-06
1.0100846e-07
-2.2149417e-06
9.5532197e-08
-2.2555812e-06
9.0394354e-08
-2.2939727e-06
8.543373e-08
-2.3302187e-06
8.0685404e-08
-2.3643527e-06
7.602328e-08
-2.3964277e-06
7.1466392e-08
-2.4263935e-06
6.6837129e-08
-2.454399e-06
6.2504392e-08
-2.4805569e-06
5.8400594e-08
-2.5048153e-06
5.4204605e-08
-2.5271987e-06
5.0061661e-08
-2.5477205e-06
4.5946326e-08
-2.5664062e-06
4.1890314e-08
-2.5832748e-06
3.7869189e-08
-2.5983571e-06
3.3917602e-08
-2.611675e-06
3.0005646e-08
-2.6232636e-06
2.6178797e-08
-2.6331368e-06
2.2372263e-08
-2.6413467e-06
1.8689233e-08
-2.6479748e-06
1.5164031e-08
-2.6531377e-06
1.1918867e-08
-2.6569126e-06
8.8642242e-09
-2.659429e-06
6.0759478e-09
-2.6608594e-06
3.6681287e-09
-2.6612464e-06
1.331894e-09
-2.6605113e-06
-1.2061115e-09
-2.6579956e-06
-5.1540374e-09
-2.6529831e-06
-1.0616036e-08
-2.645842e-06
-1.5318373e-08
-2.637132e-06
-1.8797599e-08
-2.6269667e-06
-2.2025149e-08
-2.6154566e-06
-2.5008167e-08
-2.6026413e-06
-2.7908685e-08
-2.5885794e-06
-3.0672381e-08
-2.5733071e-06
-3.3354287e-08
-2.5568631e-06
-3.5949885e-08
-2.5392761e-06
-3.8490697e-08
-2.5205865e-06
-4.0943256e-08
-2.5008329e-06
-4.3313661e-08
-2.4800651e-06
-4.5564159e-08
-2.4583204e-06
-4.7734772e-08
-2.4356414e-06
-4.9810407e-08
-2.412065e-06
-5.1812618e-08
-2.3876451e-06
-5.3683402e-08
-2.3624184e-06
-5.5476157e-08
-2.3364294e-06
-5.7164968e-08
-2.3097071e-06
-5.8804764e-08
-2.2823041e-06
-6.0313444e-08
-2.2542533e-06
-6.1755435e-08
-2.2256004e-06
-6.308801e-08
-2.1963743e-06
-6.4366797e-08
-2.1666177e-06
-6.554592e-08
-2.1363652e-06
-6.6650101e-08
-2.105656e-06
-6.7663412e-08
-2.0745241e-06
-6.8598925e-08
-2.0429934e-06
-6.9489774e-08
-2.0110972e-06
-7.0304096e-08
-1.978862e-06
-7.1066942e-08
-1.9463348e-06
-7.1711738e-08
-1.9135432e-06
-7.2307566e-08
-1.8805203e-06
-7.2822493e-08
-1.8472854e-06
-7.3301096e-08
-1.8138759e-06
-7.3689591e-08
-1.7803202e-06
-7.4018211e-08
-1.7466447e-06
-7.428723e-08
-1.7128747e-06
-7.4504138e-08
-1.6790352e-06
-7.4666701e-08
-1.6451613e-06
-7.474493e-08
-1.6112754e-06
-7.4778994e-08
-1.5774145e-06
-7.4716051e-08
-1.5435849e-06
-7.4660615e-08
-1.5098263e-06
-7.4497138e-08
-1.4761486e-06
-7.4330134e-08
-1.4425946e-06
-7.4041765e-08
-1.4091652e-06
-7.377261e-08
-1.3758856e-06
-7.3434826e-08
-1.3427579e-06
-7.3109516e-08
-1.3098041e-06
-7.2725516e-08
-1.2770386e-06
-7.2309155e-08
-1.2444673e-06
-7.1886314e-08
-1.2121046e-06
-7.1431286e-08
-1.1799653e-06
-7.0960163e-08
-1.148095e-06
-7.0358998e-08
-1.1165184e-06
-6.9692423e-08
-1.085227e-06
-6.9068745e-08
-1.0542312e-06
-6.8423231e-08
-1.0235571e-06
-6.7705781e-08
-9.9320252e-07
-6.6995998e-08
-9.6316927e-07
-6.6291533e-08
-9.3345007e-07
-6.5614412e-08
-9.0406861e-07
-6.4878665e-08
-8.7504317e-07
-6.4090234e-08
-8.4638959e-07
-6.3279246e-08
-8.181322e-07
-6.2396476e-08
-7.9028489e-07
-6.1501706e-08
-7.6287981e-07
-6.0500958e-08
-7.3591396e-07
-5.9536128e-08
-7.0939399e-07
-5.8535759e-08
-6.8330468e-07
-5.761514e-08
-6.5768327e-07
-5.6559476e-08
-6.3253185e-07
-5.5533967e-08
-6.0785937e-07
-5.4456683e-08
-5.836534e-07
-5.3468846e-08
-5.5994902e-07
-5.2339877e-08
-5.3677401e-07
-5.1190956e-08
-5.1413337e-07
-4.9987333e-08
-4.9205041e-07
-4.879839e-08