/*--------------------------------*- C++ -*----------------------------------*\
| =========                 |                                                 |
| \\      /  F ield         | OpenFOAM: The Open Source CFD Toolbox           |
|  \\    /   O peration     | Version:  2.4.0                                 |
|   \\  /    A nd           | Web:      www.OpenFOAM.org                      |
|    \\/     M anipulation  |                                                 |
\*---------------------------------------------------------------------------*/
FoamFile
{
    version     2.0;
    format      ascii;
    class       volScalarField;
    location    "15000";
    object      nut;
}
// * * * * * * * * * * * * * * * * * * * * * * * * * * * * * * * * * * * * * //

dimensions      [0 2 -1 0 0 0 0];

internalField   nonuniform List<scalar> 
9779
(
0.00082930276
0.00082570715
0.0008220082
0.00081820625
0.0008142997
0.00081028875
0.00080616967
0.00080194307
0.00093843367
0.00093510098
0.00093165443
0.0009280951
0.00092442393
0.00092064078
0.0009167464
0.00091274043
0.00090862317
0.00090439293
0.00090004982
0.00089558987
0.0008910136
0.00088631522
0.00088149438
0.00087654247
0.0008714591
0.0010464889
0.0010432649
0.0010399138
0.0010364373
0.0010328369
0.0010291141
0.00102527
0.0010213056
0.0010172208
0.0010130162
0.0010086916
0.0010042472
0.00099968107
0.00099499337
0.00099017986
0.00098524092
0.00098017043
0.00097496781
0.0009696239
0.00096413804
0.00095849602
0.0011808776
0.0011792289
0.0011774117
0.0011754291
0.0011732844
0.0011709806
0.0011685208
0.0011659081
0.0011631454
0.0011602355
0.0011571809
0.001153984
0.0011506471
0.0011471721
0.001143561
0.0011398155
0.0011359372
0.0011319277
0.0011277881
0.0011235195
0.0011191217
0.0011145955
0.0011099404
0.0011051568
0.0011002425
0.0010951976
0.0010900177
0.0010847029
0.0010792468
0.0010736486
0.0010678986
0.0010619957
0.001055925
0.0010496858
0.0010432561
0.0012928623
0.0012910784
0.0012891145
0.0012869739
0.0012846601
0.0012821762
0.0012795258
0.0012767119
0.0012737378
0.0012706063
0.0012673203
0.0012638822
0.0012602944
0.0012565591
0.0012526783
0.0012486538
0.0012444874
0.0012401806
0.0012357347
0.0012311509
0.0012264288
0.0012215694
0.001216572
0.001211437
0.0012061621
0.0012007474
0.001195188
0.001189484
0.0011836287
0.0011776209
0.0011714504
0.0011651158
0.0011586013
0.0011519057
0.0011450059
0.0011379016
0.0011305593
0.0014122447
0.0014105155
0.001408591
0.0014064745
0.0014041697
0.0014016801
0.0013990093
0.0013961608
0.0013931382
0.0013899448
0.0013865836
0.0013830576
0.0013793695
0.0013755217
0.0013715168
0.0013673565
0.0013630432
0.0013585783
0.0013539638
0.0013492008
0.0013442906
0.0013392329
0.0013340286
0.001328677
0.0013231784
0.0013175304
0.0013117329
0.001305781
0.0012996744
0.001293406
0.0012869745
0.0012803689
0.0012735877
0.0012666141
0.0012594464
0.0012520603
0.0012444548
0.0012365947
0.0015357939
0.0015339311
0.0015318605
0.0015295857
0.0015271105
0.0015244387
0.0015215742
0.0015185207
0.0015152819
0.0015118613
0.0015082623
0.0015044879
0.0015005411
0.0014964244
0.0014921404
0.0014876912
0.001483079
0.0014783056
0.0014733728
0.001468282
0.0014630343
0.0014576296
0.0014520688
0.001446351
0.0014404764
0.0014344428
0.0014282497
0.0014218919
0.0014153691
0.0014086738
0.0014018042
0.0013947491
0.0013875061
0.0013800579
0.0013724021
0.0013645134
0.0013563896
0.0013479943
0.0013393256
0.0016669831
0.0016652068
0.0016632057
0.0016609839
0.0016585453
0.0016558939
0.0016530337
0.0016499689
0.0016467034
0.0016432411
0.0016395858
0.001635741
0.00163171
0.0016274959
0.0016231014
0.0016185291
0.0016137814
0.0016088606
0.0016037684
0.0015985069
0.0015930775
0.0015874814
0.0015817184
0.0015757893
0.0015696934
0.0015634306
0.0015569987
0.001550397
0.0015436202
0.0015366676
0.0015295313
0.0015222094
0.0015146899
0.00150697
0.0014990317
0.0014908717
0.0014824637
0.0014738046
0.0014648564
0.0014556159
0.0014460285
0.0018024881
0.0018005825
0.0017984387
0.0017960608
0.0017934531
0.0017906198
0.0017875653
0.0017842938
0.0017808095
0.0017771167
0.0017732193
0.001769121
0.0017648253
0.0017603354
0.0017556544
0.0017507848
0.0017457292
0.00174049
0.0017350691
0.0017294686
0.00172369
0.0017177345
0.0017116018
0.0017052929
0.0016988069
0.0016921438
0.0016853011
0.0016782779
0.0016710687
0.0016636727
0.0016560815
0.0016482928
0.0016402941
0.0016320822
0.001623638
0.0016149577
0.0016060138
0.0015968022
0.0015872832
0.0015774523
0.0015672529
0.0019458418
0.00194406
0.0019420214
0.0019397306
0.0019371921
0.0019344104
0.0019313899
0.0019281352
0.0019246509
0.0019209415
0.0019170113
0.0019128646
0.0019085053
0.001903937
0.0018991633
0.0018941871
0.0018890114
0.0018836387
0.0018780716
0.0018723121
0.0018663624
0.0018602241
0.0018538983
0.0018473849
0.0018406847
0.0018337969
0.0018267212
0.0018194551
0.0018119977
0.0018043429
0.0017964899
0.0017884299
0.0017801601
0.0017716675
0.0017629482
0.0017539825
0.0017447657
0.0017352692
0.0017254877
0.0017153802
0.0017049404
0.0016941097
0.0016828825
0.0020953303
0.0020937032
0.0020917995
0.0020896245
0.0020871829
0.0020844796
0.0020815192
0.0020783065
0.0020748463
0.0020711435
0.0020672027
0.0020630287
0.0020586258
0.0020539982
0.0020491498
0.0020440841
0.0020388045
0.002033314
0.0020276153
0.0020217111
0.0020156034
0.0020092945
0.0020027861
0.0019960795
0.0019891743
0.0019820716
0.0019747702
0.00196727
0.0019595682
0.0019516637
0.0019435504
0.0019352269
0.0019266842
0.001917919
0.0019089178
0.001899676
0.0018901732
0.0018804037
0.0018703379
0.0018599693
0.0018492554
0.001838188
0.0018267067
0.0018148033
0.0018023918
0.0022495714
0.0022478353
0.0022458073
0.0022434928
0.002240897
0.002238025
0.0022348817
0.0022314721
0.0022278014
0.0022238746
0.0022196966
0.0022152725
0.0022106069
0.0022057041
0.0022005683
0.0021952031
0.0021896121
0.0021837985
0.0021777651
0.0021715146
0.0021650494
0.0021583716
0.0021514832
0.0021443853
0.0021370776
0.0021295612
0.0021218349
0.0021138983
0.0021057487
0.0020973846
0.0020887998
0.0020799925
0.0020709534
0.0020616787
0.0020521542
0.0020423749
0.0020323195
0.0020219813
0.0020113297
0.0020003568
0.0019890186
0.0019773052
0.001965154
0.0019525543
0.0019394174
0.0024117169
0.0024101841
0.0024083372
0.0024061827
0.0024037262
0.0024009732
0.0023979291
0.002394599
0.0023909883
0.0023871024
0.0023829466
0.0023785261
0.0023738461
0.0023689116
0.0023637271
0.0023582969
0.002352625
0.002346715
0.0023405702
0.0023341938
0.0023275884
0.0023207565
0.0023137005
0.0023064222
0.002298923
0.0022912024
0.0022832615
0.002275099
0.0022667146
0.0022581052
0.0022492693
0.0022402003
0.0022308962
0.0022213471
0.002211549
0.002201487
0.0021911553
0.0021805318
0.0021696091
0.0021583553
0.0021467611
0.002134781
0.0021224031
0.002109563
0.0020962469
0.0020823637
0.0020678976
0.002578893
0.0025772648
0.002575306
0.0025730232
0.0025704226
0.0025675099
0.0025642908
0.0025607706
0.0025569551
0.0025528498
0.0025484603
0.0025437923
0.0025388512
0.002533642
0.0025281696
0.0025224386
0.0025164531
0.0025102169
0.0025037335
0.002497006
0.0024900374
0.0024828303
0.002475387
0.0024677095
0.0024597992
0.0024516556
0.0024432798
0.0024346703
0.0024258268
0.0024167461
0.0024074264
0.0023978608
0.002388047
0.0023779749
0.0023676396
0.002357026
0.0023461273
0.0023349209
0.0023233979
0.0023115258
0.0022992934
0.0022866541
0.0022735936
0.0022600455
0.0022459933
0.0022313432
0.0022160751
0.0027539998
0.002752631
0.0027509073
0.0027488358
0.0027464238
0.0027436775
0.0027406031
0.0027372064
0.0027334934
0.0027294697
0.0027251413
0.0027205143
0.0027155943
0.0027103871
0.002704898
0.0026991322
0.0026930944
0.0026867889
0.0026802197
0.0026733905
0.0026663045
0.0026589649
0.0026513743
0.0026435352
0.0026354496
0.0026271189
0.0026185426
0.0026097218
0.002600655
0.0025913416
0.0025817784
0.0025719633
0.0025618892
0.0025515534
0.0025409453
0.0025300597
0.0025188806
0.0025074008
0.0024955966
0.0024834582
0.0024709518
0.0024580649
0.0024447492
0.0024309882
0.0024167137
0.0024019059
0.0023864684
0.002370377
0.0023534963
0.0029355313
0.0029344665
0.0029330204
0.0029312014
0.0029290172
0.0029264753
0.0029235824
0.0029203448
0.0029167689
0.0029128606
0.0029086261
0.0029040717
0.0028992035
0.0028940276
0.00288855
0.0028827764
0.0028767121
0.002870362
0.0028637308
0.0028568224
0.0028496409
0.0028421895
0.0028344716
0.0028264898
0.0028182468
0.0028097447
0.0028009847
0.0027919667
0.0027826913
0.0027731572
0.0027633637
0.0027533072
0.0027429856
0.0027323915
0.0027215217
0.0027103653
0.0026989165
0.0026871588
0.002675084
0.0026626678
0.0026498991
0.0026367431
0.0026231856
0.0026091768
0.0025946979
0.0025796788
0.0025640962
0.0025478515
0.0025309157
0.0025131502
0.0031227894
0.0031216675
0.0031201455
0.0031182323
0.003115936
0.0031132642
0.0031102243
0.0031068228
0.0031030663
0.0030989612
0.0030945139
0.0030897309
0.0030846187
0.0030791837
0.0030734322
0.00306737
0.0030610027
0.0030543356
0.0030473733
0.0030401203
0.0030325804
0.0030247573
0.0030166544
0.0030082744
0.0029996201
0.0029906936
0.0029814963
0.0029720278
0.0029622889
0.0029522782
0.0029419948
0.002931435
0.0029205963
0.0029094712
0.002898056
0.0028863395
0.0028743152
0.0028619661
0.0028492831
0.002836241
0.0028228277
0.0028090073
0.0027947637
0.0027800457
0.002764832
0.0027490505
0.0027326748
0.0027156035
0.0026978028
0.002679131
0.0033176048
0.0033168574
0.003315681
0.0033140853
0.0033120795
0.0033096721
0.0033068714
0.0033036848
0.0033001193
0.0032961817
0.0032918789
0.0032872173
0.003282204
0.0032768457
0.003271149
0.0032651205
0.0032587664
0.0032520925
0.0032451042
0.0032378064
0.0032302038
0.0032223004
0.0032140999
0.0032056059
0.0031968213
0.0031877489
0.0031783909
0.0031687487
0.0031588219
0.0031486113
0.0031381153
0.0031273328
0.0031162602
0.0031048946
0.0030932282
0.0030812569
0.0030689691
0.0030563577
0.003043405
0.0030301011
0.0030164202
0.0030023486
0.0029878496
0.0029729049
0.0029574621
0.0029414973
0.0029249367
0.0029077499
0.0028898332
0.002871148
0.0028515491
0.0035185843
0.0035178058
0.0035165782
0.0035149115
0.0035128155
0.0035102991
0.0035073709
0.0035040387
0.0035003098
0.0034961915
0.0034916906
0.0034868143
0.0034815697
0.0034759638
0.0034700037
0.0034636961
0.0034570475
0.003450064
0.0034427511
0.0034351142
0.0034271578
0.0034188864
0.0034103037
0.0034014135
0.0033922187
0.0033827222
0.0033729263
0.0033628325
0.0033524402
0.0033417503
0.0033307611
0.0033194713
0.0033078771
0.0032959754
0.0032837581
0.0032712207
0.0032583512
0.0032451417
0.0032315742
0.0032176376
0.0032033053
0.0031885626
0.0031733713
0.0031577116
0.0031415292
0.0031247979
0.0031074418
0.0030894269
0.003070647
0.0030510584
0.0030305125
0.003008952
0.0037268266
0.0037265023
0.0037256973
0.0037244225
0.0037226885
0.0037205054
0.0037178827
0.0037148293
0.0037113533
0.0037074625
0.0037031645
0.0036984664
0.0036933755
0.0036878994
0.0036820455
0.003675821
0.0036692329
0.0036622881
0.0036549929
0.0036473531
0.0036393741
0.0036310608
0.0036224177
0.0036134489
0.003604158
0.0035945482
0.0035846226
0.0035743833
0.0035638319
0.0035529679
0.0035417921
0.0035303025
0.003518498
0.0035063743
0.0034939282
0.0034811514
0.0034680388
0.0034545779
0.0034407604
0.0034265674
0.0034119871
0.0033969921
0.0033815661
0.00336567
0.0033492819
0.0033323461
0.0033148336
0.0032966667
0.0032778076
0.0032581477
0.0032376376
0.003216126
0.0031935478
0.0039417355
0.0039414116
0.0039405853
0.0039392682
0.0039374713
0.0039352052
0.0039324797
0.0039293043
0.0039256874
0.003921637
0.0039171612
0.0039122673
0.0039069631
0.0039012564
0.0038951547
0.0038886658
0.003881797
0.0038745552
0.0038669471
0.0038589788
0.0038506559
0.0038419834
0.003832966
0.0038236079
0.003813913
0.0038038845
0.0037935255
0.0037828383
0.0037718245
0.0037604834
0.0037488159
0.00373682
0.0037244942
0.0037118342
0.0036988364
0.0036854923
0.0036717962
0.0036577355
0.0036433008
0.0036284728
0.0036132388
0.0035975705
0.0035814502
0.0035648376
0.0035477088
0.0035300068
0.0035116997
0.0034927078
0.0034729894
0.0034524335
0.0034309855
0.0034084903
0.0033848758
0.0033599254
0.0041634515
0.0041636718
0.0041633547
0.0041625133
0.0041611596
0.0041593051
0.0041569609
0.0041541372
0.0041508438
0.0041470896
0.0041428831
0.0041382323
0.0041331453
0.0041276299
0.0041216942
0.0041153463
0.004108594
0.0041014449
0.0040939065
0.0040859854
0.0040776881
0.0040690204
0.0040599875
0.0040505943
0.004040845
0.0040307437
0.0040202937
0.0040094983
0.0039983598
0.0039868796
0.0039750573
0.0039628935
0.0039503862
0.0039375337
0.0039243316
0.0039107759
0.0038968578
0.0038825713
0.003867903
0.0038528432
0.0038373719
0.0038214753
0.0038051243
0.0037882997
0.0037709602
0.0037530797
0.0037345997
0.0037154855
0.0036956556
0.0036750643
0.003653598
0.0036311964
0.0036077015
0.0035830332
0.003556971
0.0035294086
0.0035000388
0.004392408
0.0043926655
0.0043923628
0.0043915134
0.0043901297
0.0043882239
0.0043858074
0.0043828909
0.0043794847
0.004375598
0.0043712395
0.0043664179
0.0043611412
0.0043554178
0.0043492561
0.0043426644
0.0043356508
0.0043282233
0.0043203896
0.0043121566
0.004303531
0.0042945188
0.0042851254
0.0042753558
0.0042652145
0.0042547057
0.0042438328
0.004232599
0.0042210068
0.0042090577
0.0041967511
0.0041840877
0.0041710651
0.0041576817
0.0041439329
0.0041298143
0.0041153168
0.004100434
0.004085152
0.0040694604
0.0040533386
0.0040367716
0.0040197298
0.0040021922
0.0039841166
0.0039654745
0.0039462063
0.0039262741
0.0039055945
0.0038841179
0.003861728
0.0038383591
0.0038138498
0.0037881121
0.0037609213
0.0037321605
0.0037015167
0.0046284309
0.0046287345
0.0046284545
0.004627605
0.0046261991
0.0046242491
0.0046217673
0.0046187646
0.0046152516
0.0046112381
0.0046067332
0.0046017457
0.0045962842
0.0045903572
0.0045839735
0.0045771416
0.0045698701
0.0045621672
0.0045540407
0.0045454981
0.0045365461
0.0045271909
0.0045174382
0.0045072932
0.0044967604
0.0044858442
0.0044745481
0.0044628753
0.0044508285
0.0044384091
0.0044256165
0.0044124513
0.0043989111
0.0043849939
0.004370695
0.0043560098
0.004340929
0.0043254453
0.0043095448
0.0042932159
0.0042764378
0.0042591944
0.004241455
0.0042231972
0.0042043776
0.0041849657
0.0041649003
0.0041441406
0.0041226014
0.0041002287
0.0040769039
0.0040525555
0.0040270187
0.0040001979
0.0039718639
0.0039418889
0.0039099545
0.0038758884
0.0048715231
0.0048718823
0.0048716344
0.0048707939
0.0048693743
0.0048673887
0.0048648494
0.0048617681
0.0048581557
0.0048540225
0.0048493777
0.0048442307
0.0048385903
0.0048324653
0.0048258648
0.0048187977
0.0048112729
0.0048032988
0.0047948836
0.0047860349
0.0047767597
0.0047670645
0.0047569551
0.0047464369
0.0047355145
0.0047241923
0.0047124742
0.0047003633
0.0046878624
0.0046749727
0.0046616939
0.0046480262
0.0046339673
0.004619515
0.0046046644
0.0045894104
0.0045737436
0.0045576561
0.0045411336
0.0045241638
0.0045067252
0.0044888005
0.0044703583
0.0044513747
0.0044318049
0.0044116165
0.0043907468
0.0043691518
0.0043467446
0.0043234669
0.0042991977
0.0042738595
0.0042472844
0.0042193687
0.004189879
0.0041586765
0.0041254372
0.0040899739
0.0051216719
0.0051220975
0.0051218922
0.0051210707
0.0051196473
0.0051176353
0.0051150478
0.0051118967
0.0051081934
0.0051039486
0.0050991719
0.0050938729
0.0050880609
0.0050817449
0.0050749342
0.0050676383
0.0050598662
0.0050516266
0.005042928
0.0050337782
0.0050241847
0.0050141539
0.0050036918
0.004992804
0.0049814954
0.0049697704
0.004957633
0.0049450864
0.0049321333
0.0049187751
0.0049050113
0.0048908422
0.0048762652
0.004861278
0.0048458754
0.0048300521
0.0048137984
0.0047971058
0.0047799596
0.0047623467
0.004744245
0.0047256361
0.0047064877
0.0046867743
0.0046664501
0.0046454803
0.0046238008
0.0046013648
0.0045780832
0.0045538935
0.0045286724
0.0045023363
0.0044747142
0.0044456942
0.0044150388
0.004382598
0.0043480424
0.0043111695
0.004271519
0.0053788483
0.0053793522
0.0053792008
0.0053784097
0.0053769933
0.0053749656
0.0053723402
0.0053691294
0.0053653451
0.0053609982
0.0053560988
0.0053506568
0.0053446818
0.0053381831
0.0053311705
0.0053236535
0.0053156416
0.0053071437
0.0052981686
0.0052887245
0.0052788188
0.0052684583
0.0052576493
0.0052463973
0.0052347075
0.0052225845
0.0052100321
0.0051970538
0.0051836523
0.005169829
0.0051555833
0.0051409154
0.0051258226
0.0051103024
0.0050943495
0.0050779583
0.0050611185
0.0050438214
0.0050260515
0.0050077953
0.0049890299
0.0049697357
0.0049498795
0.0049294343
0.0049083532
0.0048865992
0.0048641067
0.0048408258
0.0048166655
0.0047915592
0.0047653808
0.0047380411
0.0047093658
0.0046792347
0.0046474062
0.0046137191
0.0045778388
0.0045395473
0.004498377
0.0044540157
0.0056430055
0.0056436004
0.0056435157
0.0056427671
0.00564137
0.0056393386
0.0056366869
0.0056334279
0.0056295737
0.0056251356
0.0056201242
0.0056145497
0.0056084219
0.0056017505
0.0055945455
0.0055868168
0.0055785741
0.0055698268
0.0055605838
0.0055508536
0.0055406437
0.0055299613
0.0055188127
0.0055072037
0.0054951395
0.0054826249
0.0054696638
0.0054562597
0.0054424153
0.0054281321
0.0054134094
0.0053982472
0.005382643
0.0053665938
0.0053500941
0.005333138
0.005315715
0.0052978158
0.0052794245
0.0052605268
0.005241099
0.0052211203
0.005200557
0.0051793801
0.0051575419
0.005135003
0.0051116964
0.0050875691
0.0050625283
0.005036503
0.0050093647
0.0049810182
0.004951286
0.0049200399
0.0048870339
0.0048520959
0.0048148855
0.0047751699
0.004732474
0.0046864636
0.005914077
0.005914777
0.0059147727
0.0059140805
0.005912716
0.0059106941
0.0059080293
0.0059047348
0.0059008233
0.0058963066
0.0058911953
0.0058855002
0.0058792313
0.0058723987
0.0058650127
0.0058570834
0.0058486209
0.0058396347
0.0058301341
0.0058201278
0.0058096236
0.0057986288
0.0057871499
0.0057751929
0.005762763
0.0057498652
0.0057365035
0.0057226814
0.0057084018
0.0056936658
0.0056784731
0.0056628233
0.0056467138
0.0056301416
0.0056131008
0.0055955851
0.005577584
0.0055590873
0.005540079
0.0055205436
0.0055004569
0.0054797971
0.0054585293
0.0054366233
0.00541403
0.0053907079
0.0053665886
0.005341616
0.0053156954
0.0052887514
0.0052606532
0.0052312997
0.00520051
0.0051681479
0.0051339633
0.0050977729
0.0050592311
0.0050180897
0.0049738666
0.0049262053
0.0048743996
0.006191976
0.0061927963
0.0061928875
0.0061922665
0.0061909494
0.0061889517
0.0061862882
0.0061829726
0.006179018
0.0061744366
0.0061692393
0.0061634373
0.0061570408
0.0061500602
0.0061425062
0.0061343892
0.0061257194
0.0061165068
0.0061067608
0.0060964904
0.0060857037
0.006074408
0.0060626101
0.006050316
0.0060375312
0.0060242607
0.0060105086
0.0059962786
0.0059815733
0.0059663941
0.0059507403
0.0059346118
0.0059180056
0.0059009185
0.0058833444
0.0058652769
0.0058467048
0.0058276178
0.0058079989
0.0057878322
0.0057670926
0.0057457572
0.0057237903
0.0057011601
0.0056778164
0.0056537156
0.0056287876
0.0056029734
0.0055761764
0.005548317
0.005519262
0.0054889041
0.0054570596
0.005423584
0.0053882232
0.0053507828
0.0053109119
0.0052683474
0.0052225998
0.005173291
0.0051197046
0.0064765934
0.0064775504
0.0064777534
0.00647722
0.0064759666
0.0064740091
0.0064713629
0.0064680421
0.0064640602
0.0064594297
0.006454162
0.0064482683
0.0064417595
0.0064346461
0.006426939
0.006418649
0.0064097866
0.006400362
0.0063903848
0.0063798644
0.0063688089
0.0063572259
0.0063451224
0.0063325044
0.0063193777
0.0063057472
0.0062916172
0.0062769913
0.0062618724
0.0062462615
0.0062301583
0.0062135621
0.0061964701
0.0061788787
0.0061607818
0.0061421724
0.0061230392
0.0061033712
0.0060831511
0.0060623619
0.006040978
0.0060189752
0.0059963172
0.0059729705
0.0059488838
0.0059240113
0.0058982816
0.0058716326
0.0058439658
0.0058151974
0.0057851916
0.0057538356
0.0057209424
0.0056863594
0.0056498286
0.0056111446
0.0055699514
0.0055259708
0.0054787066
0.0054277589
0.0053724011
0.005312406
0.0067677965
0.006768908
0.0067692407
0.0067688124
0.0067676404
0.0067657408
0.0067631295
0.0067598211
0.0067558293
0.0067511671
0.0067458462
0.0067398782
0.0067332742
0.006726045
0.0067182017
0.0067097555
0.0067007171
0.0066910969
0.006680905
0.0066701507
0.0066588424
0.006646988
0.0066345945
0.0066216681
0.0066082146
0.0065942392
0.0065797462
0.0065647391
0.0065492209
0.0065331927
0.0065166538
0.0064996037
0.0064820392
0.0064639568
0.00644535
0.0064262114
0.0064065296
0.0063862929
0.0063654833
0.0063440832
0.0063220663
0.0062994073
0.006276069
0.0062520164
0.0062271972
0.0062015632
0.0061750419
0.006147568
0.0061190411
0.0060893734
0.0060584267
0.0060260824
0.0059921502
0.0059564701
0.0059187796
0.0058788628
0.0058363585
0.0057909739
0.0057422059
0.0056896339
0.0056325197
0.0055706262
0.007065428
0.007066713
0.0070671944
0.0070668906
0.0070658191
0.0070639967
0.0070614396
0.0070581627
0.0070541803
0.0070495057
0.0070441508
0.0070381277
0.0070314475
0.0070241215
0.007016161
0.0070075775
0.0069983819
0.0069885849
0.0069781968
0.006967227
0.0069556844
0.0069435768
0.0069309113
0.0069176944
0.0069039319
0.0068896291
0.0068747904
0.0068594194
0.0068435188
0.00682709
0.0068101321
0.0067926444
0.0067746237
0.0067560662
0.0067369652
0.006717313
0.0066970979
0.0066763074
0.0066549233
0.0066329269
0.0066102913
0.0065869902
0.0065629855
0.0065382407
0.0065127025
0.0064863207
0.0064590211
0.0064307356
0.006401362
0.0063708084
0.0063389343
0.0063056153
0.0062706583
0.0062338952
0.0061950598
0.0061539257
0.0061101266
0.0060633554
0.0060131023
0.0059589265
0.0059000774
0.0058363081
0.0073693039
0.007370783
0.0073714338
0.0073712751
0.007370325
0.0073686006
0.0073661186
0.0073628944
0.0073589426
0.0073542765
0.0073489089
0.0073428517
0.0073361166
0.007328715
0.0073206585
0.0073119588
0.0073026271
0.0072926743
0.0072821109
0.0072709467
0.0072591904
0.0072468503
0.0072339334
0.0072204465
0.0072063954
0.0071917854
0.007176621
0.0071609059
0.0071446428
0.0071278329
0.0071104754
0.0070925694
0.0070741116
0.0070550979
0.0070355214
0.0070153741
0.0069946439
0.0069733179
0.006951377
0.0069288019
0.0069055652
0.0068816394
0.0068569856
0.0068315658
0.0068053257
0.0067782129
0.006750152
0.006721072
0.0066908689
0.0066594468
0.0066266626
0.0065923869
0.0065564232
0.0065185961
0.0064786355
0.0064363046
0.0063912322
0.0063430973
0.0062913836
0.0062356311
0.0061750757
0.0061094599
0.0060371723
0.0076766454
0.007679213
0.0076809079
0.0076817502
0.0076817589
0.0076809527
0.0076793491
0.007676965
0.0076738163
0.007669918
0.0076652838
0.0076599266
0.0076538587
0.007647092
0.0076396382
0.0076315091
0.0076227167
0.0076132723
0.0076031872
0.007592472
0.0075811367
0.0075691902
0.0075566408
0.0075434959
0.0075297621
0.0075154454
0.0075005512
0.0074850841
0.0074690477
0.0074524447
0.0074352763
0.0074175416
0.0073992395
0.0073803667
0.0073609187
0.0073408886
0.007320268
0.0072990443
0.0072772039
0.0072547275
0.0072315949
0.007207778
0.0071832483
0.0071579661
0.0071318921
0.0071049707
0.0070771478
0.0070483464
0.0070184929
0.0069874814
0.0069552121
0.0069215399
0.0068863297
0.0068493823
0.006810515
0.0067694537
0.0067259519
0.0066796334
0.0066301637
0.0065770205
0.0065197252
0.0064574998
0.0063900738
0.0063158224
0.0079920833
0.0079949148
0.0079968489
0.0079979063
0.0079981064
0.0079974682
0.0079960097
0.0079937482
0.0079907
0.0079868802
0.007982303
0.0079769816
0.0079709285
0.0079641558
0.0079566755
0.0079484997
0.0079396404
0.0079301094
0.007919918
0.007909077
0.0078975967
0.0078854861
0.0078727536
0.0078594066
0.0078454519
0.0078308956
0.0078157432
0.0077999993
0.0077836674
0.0077667503
0.0077492489
0.0077311626
0.0077124899
0.0076932274
0.0076733705
0.007652912
0.0076318431
0.0076101507
0.0075878209
0.0075648337
0.0075411681
0.0075167955
0.0074916864
0.0074658003
0.0074390965
0.0074115185
0.0073830102
0.0073534932
0.0073228913
0.0072910968
0.0072580063
0.0072234724
0.007187355
0.0071494517
0.007109573
0.0070674412
0.0070228
0.0069752687
0.0069244996
0.0068699645
0.0068111675
0.0067473172
0.0066781239
0.0066019649
0.0083089545
0.008313019
0.0083161387
0.0083183369
0.0083196346
0.0083200517
0.0083196075
0.0083183204
0.0083162081
0.008313287
0.0083095729
0.0083050801
0.008299822
0.0082938115
0.0082870609
0.0082795823
0.008271388
0.0082624903
0.0082529012
0.0082426322
0.0082316943
0.0082200977
0.0082078519
0.0081949652
0.0081814452
0.0081672986
0.0081525318
0.0081371502
0.0081211583
0.0081045599
0.0080873576
0.0080695523
0.0080511432
0.0080321287
0.0080125054
0.0079922683
0.0079714101
0.0079499213
0.0079277889
0.007904998
0.0078815283
0.0078573581
0.0078324582
0.0078067981
0.0077803366
0.0077530316
0.0077248257
0.0076956608
0.0076654575
0.0076341367
0.0076015893
0.0075677082
0.0075323439
0.0074953512
0.0074565253
0.0074156696
0.007372503
0.0073267599
0.0072780554
0.0072260289
0.0071701469
0.0071098965
0.0070444757
0.0069735653
0.0068955648
0.0086293494
0.0086347465
0.0086391488
0.0086425826
0.0086450713
0.0086466362
0.0086472976
0.0086470751
0.0086459876
0.008644053
0.0086412881
0.0086377089
0.0086333301
0.0086281652
0.0086222274
0.0086155292
0.0086080829
0.0085999011
0.0085909961
0.0085813802
0.008571065
0.0085600617
0.0085483807
0.0085360315
0.0085230226
0.0085093615
0.0084950553
0.00848011
0.0084645314
0.0084483239
0.0084314914
0.0084140361
0.0083959592
0.0083772597
0.0083579359
0.008337984
0.0083173992
0.0082961734
0.0082742972
0.0082517569
0.0082285372
0.0082046173
0.0081799749
0.00815458
0.0081284014
0.0081013971
0.0080735237
0.0080447229
0.0080149348
0.0079840789
0.0079520735
0.007918808
0.0078841718
0.0078480134
0.007810183
0.007770473
0.0077286804
0.0076845209
0.0076377199
0.0075878883
0.0075346536
0.007477477
0.0074158299
0.0073489015
0.0072763332
0.0071965668
0.0071074918
0.0089595851
0.0089653699
0.0089701368
0.008973912
0.0089767191
0.0089785797
0.0089795145
0.0089795434
0.0089786855
0.0089769592
0.0089743815
0.0089709687
0.0089667357
0.0089616962
0.0089558637
0.0089492509
0.0089418702
0.0089337343
0.0089248559
0.0089152472
0.0089049202
0.008893886
0.0088821554
0.0088697377
0.0088566416
0.0088428748
0.0088284441
0.008813356
0.0087976159
0.0087812285
0.0087641975
0.0087465253
0.0087282127
0.0087092587
0.0086896615
0.0086694173
0.0086485207
0.0086269637
0.0086047361
0.0085818241
0.0085582119
0.0085338782
0.0085087998
0.0084829466
0.0084562862
0.0084287761
0.0084003716
0.0083710135
0.0083406403
0.0083091703
0.0082765194
0.0082425757
0.0082072252
0.0081703145
0.0081316893
0.0080911397
0.0080484564
0.0080033521
0.0079555438
0.0079046383
0.007850252
0.007791841
0.0077288621
0.0076604983
0.0075863405
0.0075048934
0.0074139848
0.0092869775
0.0092942541
0.0093004539
0.0093056134
0.0093097588
0.0093129139
0.0093151004
0.0093163395
0.0093166512
0.0093160551
0.0093145697
0.0093122124
0.0093089997
0.0093049466
0.0093000673
0.0092943752
0.0092878833
0.0092806041
0.0092725504
0.0092637352
0.0092541707
0.009243869
0.0092328416
0.0092210991
0.009208651
0.0091955061
0.0091816719
0.0091671556
0.0091519634
0.009136101
0.0091195729
0.0091023828
0.009084533
0.0090660243
0.0090468557
0.0090270251
0.0090065285
0.0089853602
0.0089635119
0.0089409733
0.0089177299
0.0088937655
0.0088690585
0.0088435852
0.0088173146
0.0087902136
0.0087622393
0.0087333455
0.0087034726
0.0086725572
0.0086405165
0.0086072645
0.0085726877
0.008536669
0.0084990534
0.0084596824
0.0084183436
0.0083748222
0.0083288278
0.0082800696
0.0082281509
0.0081726772
0.0081131003
0.0080488634
0.0079791456
0.0079034771
0.0078204438
0.0077278141
0.0076221462
0.0096165427
0.0096252094
0.0096329499
0.0096395933
0.0096451748
0.0096497207
0.0096532548
0.0096557992
0.0096573752
0.0096580032
0.009657703
0.0096564933
0.0096543918
0.0096514151
0.0096475786
0.0096428966
0.0096373825
0.0096310496
0.0096239105
0.0096159782
0.0096072657
0.0095977853
0.0095875493
0.0095765693
0.0095648559
0.0095524188
0.0095392666
0.009525407
0.0095108472
0.0094955934
0.0094796512
0.0094630253
0.0094457192
0.0094277351
0.0094090739
0.0093897342
0.009369714
0.0093490089
0.0093276131
0.0093055178
0.0092827124
0.0092591823
0.0092349106
0.0092098753
0.0091840522
0.0091574098
0.0091299142
0.0091015219
0.0090721858
0.0090418453
0.0090104356
0.0089778731
0.0089440696
0.0089089103
0.0088722754
0.0088340081
0.0087939462
0.0087518752
0.0087075747
0.0086607519
0.0086111086
0.0085582448
0.008501756
0.0084410902
0.0083756779
0.0083046972
0.0082276079
0.0081430917
0.0080488674
0.0079415503
0.0099475008
0.0099578076
0.0099669976
0.0099752309
0.0099823476
0.0099883819
0.0099933601
0.009997306
0.010000242
0.010002189
0.010003169
0.010003201
0.010002304
0.010000496
0.0099977933
0.0099942125
0.0099897673
0.0099844716
0.0099783385
0.009971381
0.009963612
0.0099550446
0.0099456913
0.0099355644
0.0099246756
0.0099130356
0.0099006541
0.0098875397
0.0098737001
0.0098591424
0.009843873
0.0098278974
0.0098112203
0.0097938451
0.009775774
0.0097570076
0.0097375446
0.0097173827
0.0096965173
0.0096749421
0.0096526484
0.009629625
0.0096058571
0.0095813273
0.0095560134
0.0095298903
0.0095029265
0.0094750871
0.009446328
0.0094166014
0.0093858458
0.0093539952
0.009320965
0.0092866651
0.0092509797
0.0092137864
0.0091749269
0.0091342353
0.0090914953
0.0090464819
0.0089988995
0.0089484433
0.0088947104
0.008837287
0.008775618
0.0087091225
0.0086369796
0.0085585718
0.0084726851
0.0083770045
0.0082681861
0.0081583193
0.010279091
0.010291251
0.010302121
0.010311864
0.01032062
0.010328241
0.01033476
0.010340204
0.010344596
0.010347959
0.010350314
0.010351683
0.010352084
0.010351539
0.010350064
0.010347677
0.010344393
0.010340227
0.010335193
0.010329303
0.010322572
0.010315011
0.010306634
0.010297454
0.010287483
0.010276732
0.010265213
0.010252935
0.010239907
0.010226136
0.01021163
0.010196395
0.010180436
0.010163758
0.010146365
0.010128258
0.010109438
0.010089903
0.010069652
0.010048678
0.010026976
0.010004537
0.0099813489
0.0099573968
0.0099326629
0.0099071246
0.0098807563
0.0098535262
0.0098253987
0.0097963293
0.0097662691
0.0097351563
0.0097029235
0.0096694854
0.0096347501
0.0095986009
0.009560913
0.0095215269
0.0094802734
0.0094369348
0.0093912813
0.0093430155
0.0092918264
0.0092373085
0.0091790398
0.0091164622
0.0090489851
0.0089757905
0.0088961805
0.0088090439
0.008712057
0.0086018988
0.0084905453
0.0084135576
0.010595544
0.010610751
0.010624732
0.010637506
0.010648969
0.010659294
0.010668603