/*--------------------------------*- C++ -*----------------------------------*\
| =========                 |                                                 |
| \\      /  F ield         | OpenFOAM: The Open Source CFD Toolbox           |
|  \\    /   O peration     | Version:  2.4.0                                 |
|   \\  /    A nd           | Web:      www.OpenFOAM.org                      |
|    \\/     M anipulation  |                                                 |
\*---------------------------------------------------------------------------*/
FoamFile
{
    version     2.0;
    format      ascii;
    class       surfaceScalarField;
    location    "15000";
    object      phi;
}
// * * * * * * * * * * * * * * * * * * * * * * * * * * * * * * * * * * * * * //

dimensions      [0 3 -1 0 0 0 0];

internalField   nonuniform List<scalar> 
19323
(
-1.007637e-05
-1.0156818e-05
-9.4412928e-06
-1.00147e-05
-8.815101e-06
-9.8686319e-06
-8.1980286e-06
-9.7188643e-06
-7.5903329e-06
-9.5649398e-06
-6.992258e-06
-9.4072031e-06
-6.4041026e-06
-9.2446053e-06
-9.0778778e-06
-1.3671673e-05
-1.152195e-05
-1.2970013e-05
-1.1390403e-05
-1.2276395e-05
-1.1254905e-05
-1.1591043e-05
-1.1115482e-05
-1.0914184e-05
-1.0972252e-05
-1.0246054e-05
-1.0824948e-05
-9.5868816e-06
-1.0673872e-05
-8.9369148e-06
-1.0518599e-05
-8.2963976e-06
-1.0359382e-05
-7.6655931e-06
-1.0195744e-05
-7.0447592e-06
-1.0028037e-05
-6.4342028e-06
-9.8551614e-06
-5.8342077e-06
-9.6778731e-06
-5.2451281e-06
-9.494686e-06
-4.6672877e-06
-9.3065821e-06
-4.1011204e-06
-9.1111642e-06
-8.9100982e-06
-1.6194554e-05
-1.2650856e-05
-1.5443136e-05
-1.2524266e-05
-1.469933e-05
-1.2393241e-05
-1.3963376e-05
-1.2257904e-05
-1.3235514e-05
-1.2118265e-05
-1.2515979e-05
-1.1974441e-05
-1.1805006e-05
-1.1826454e-05
-1.1102829e-05
-1.1674429e-05
-1.0409693e-05
-1.1518084e-05
-9.7258356e-06
-1.1357728e-05
-9.0515127e-06
-1.1192921e-05
-8.386975e-06
-1.1023919e-05
-7.7324998e-06
-1.0850219e-05
-7.0883521e-06
-1.0672184e-05
-6.4548499e-06
-1.0488663e-05
-5.8322903e-06
-1.0300433e-05
-5.2210382e-06
-1.0105938e-05
-4.6214299e-06
-9.9061905e-06
-4.0339149e-06
-9.6986792e-06
-3.4588913e-06
-9.4851217e-06
-9.2616237e-06
-2.643338e-05
-1.4637136e-05
-2.5580739e-05
-1.4569881e-05
-2.4732587e-05
-1.4496057e-05
-2.3889248e-05
-1.4415868e-05
-2.3051037e-05
-1.4329491e-05
-2.2218265e-05
-1.4237109e-05
-2.1391231e-05
-1.4138927e-05
-2.0570225e-05
-1.4035135e-05
-1.9755528e-05
-1.3925869e-05
-1.894742e-05
-1.3811334e-05
-1.8146167e-05
-1.369171e-05
-1.7352033e-05
-1.3567095e-05
-1.6565277e-05
-1.3437613e-05
-1.578615e-05
-1.3303393e-05
-1.5014906e-05
-1.3164485e-05
-1.4251792e-05
-1.3021018e-05
-1.3497058e-05
-1.2873e-05
-1.2750946e-05
-1.2720554e-05
-1.2013698e-05
-1.2563702e-05
-1.1285557e-05
-1.240257e-05
-1.056678e-05
-1.2236862e-05
-9.8576084e-06
-1.20669e-05
-9.1583103e-06
-1.1892219e-05
-8.469148e-06
-1.1713081e-05
-7.790404e-06
-1.1528963e-05
-7.1223559e-06
-1.1340232e-05
-6.4653341e-06
-1.1145685e-05
-5.819645e-06
-1.0946122e-05
-5.1856673e-06
-1.0739916e-05
-4.563752e-06
-1.0528106e-05
-3.9543604e-06
-1.0308071e-05
-3.3579074e-06
-1.0081575e-05
-2.7749762e-06
-9.8445551e-06
-2.2060678e-06
-9.5997704e-06
-9.3410803e-06
-2.7162211e-05
-1.5525148e-05
-2.6278509e-05
-1.5453584e-05
-2.5399458e-05
-1.5375108e-05
-2.4525396e-05
-1.5289931e-05
-2.365665e-05
-1.5198236e-05
-2.2793539e-05
-1.5100221e-05
-2.1936368e-05
-1.4996099e-05
-2.1085441e-05
-1.4886062e-05
-2.0241051e-05
-1.4770259e-05
-1.940348e-05
-1.4648905e-05
-1.8573007e-05
-1.4522183e-05
-1.7749906e-05
-1.4390196e-05
-1.6934441e-05
-1.4253078e-05
-1.6126876e-05
-1.4110957e-05
-1.5327473e-05
-1.3963888e-05
-1.4536486e-05
-1.3812004e-05
-1.3754172e-05
-1.3655314e-05
-1.2980783e-05
-1.3493943e-05
-1.2216573e-05
-1.3327911e-05
-1.146179e-05
-1.3157353e-05
-1.0716699e-05
-1.2981953e-05
-9.9815562e-06
-1.2802042e-05
-9.2566339e-06
-1.2617142e-05
-8.5422056e-06
-1.242751e-05
-7.8385646e-06
-1.2232604e-05
-7.1460002e-06
-1.2032796e-05
-6.4648505e-06
-1.1826835e-05
-5.7954378e-06
-1.1615534e-05
-5.1381494e-06
-1.1397205e-05
-4.4933556e-06
-1.11729e-05
-3.8615293e-06
-1.0939897e-05
-3.2431063e-06
-1.0699998e-05
-2.6386818e-06
-1.044898e-05
-2.0487827e-06
-1.0189669e-05
-1.4741737e-06
-9.9156892e-06
-9.1550873e-07
-9.6316753e-06
-9.3280821e-06
-2.8818847e-05
-1.6513848e-05
-2.7898776e-05
-1.6445219e-05
-2.6983171e-05
-1.6369189e-05
-2.6072388e-05
-1.6285891e-05
-2.5166771e-05
-1.6195548e-05
-2.4266662e-05
-1.6098344e-05
-2.3372387e-05
-1.5994496e-05
-2.248427e-05
-1.5884216e-05
-2.1602612e-05
-1.5767719e-05
-2.0727723e-05
-1.5645148e-05
-1.9859895e-05
-1.5516733e-05
-1.8999416e-05
-1.5382661e-05
-1.8146563e-05
-1.5243049e-05
-1.7301618e-05
-1.5098024e-05
-1.6464849e-05
-1.4947726e-05
-1.5636526e-05
-1.4792212e-05
-1.4816915e-05
-1.4631615e-05
-1.400628e-05
-1.446595e-05
-1.3204885e-05
-1.4295338e-05
-1.2412989e-05
-1.4119807e-05
-1.1630852e-05
-1.3939489e-05
-1.0858747e-05
-1.3754058e-05
-1.0096937e-05
-1.3563852e-05
-9.3457102e-06
-1.3368368e-05
-8.6053438e-06
-1.3167876e-05
-7.8761462e-06
-1.2961802e-05
-7.158414e-06
-1.2750528e-05
-6.4525021e-06
-1.2532747e-05
-5.7587397e-06
-1.2309297e-05
-5.0775325e-06
-1.2078412e-05
-4.4092608e-06
-1.1841172e-05
-3.7544159e-06
-1.1594742e-05
-3.1134485e-06
-1.1340965e-05
-2.4869749e-06
-1.1075453e-05
-1.875544e-06
-1.08011e-05
-1.2799367e-06
-1.0511296e-05
-7.0084248e-07
-1.021077e-05
-9.8896237e-06
-2.9595992e-05
-1.7471119e-05
-2.8642977e-05
-1.7398234e-05
-2.7694589e-05
-1.7317578e-05
-2.6751196e-05
-1.7229284e-05
-2.5813159e-05
-1.7133585e-05
-2.4880825e-05
-1.7030679e-05
-2.395453e-05
-1.6920791e-05
-2.3034607e-05
-1.680414e-05
-2.2121377e-05
-1.6680949e-05
-2.121515e-05
-1.6551375e-05
-2.0316232e-05
-1.6415651e-05
-1.9424918e-05
-1.6273976e-05
-1.8541501e-05
-1.6126466e-05
-1.7666264e-05
-1.5973261e-05
-1.6799491e-05
-1.5814499e-05
-1.5941458e-05
-1.5650244e-05
-1.509244e-05
-1.5480634e-05
-1.4252712e-05
-1.5305677e-05
-1.3422543e-05
-1.5125507e-05
-1.2602208e-05
-1.4940143e-05
-1.179197e-05
-1.4749727e-05
-1.0992115e-05
-1.4553912e-05
-1.0202916e-05
-1.4353052e-05
-9.4246676e-06
-1.4146617e-05
-8.657664e-06
-1.3934879e-05
-7.9022193e-06
-1.3717247e-05
-7.1586428e-06
-1.3494105e-05
-6.4272997e-06
-1.326409e-05
-5.708537e-06
-1.3028059e-05
-5.0027692e-06
-1.278418e-05
-4.3103911e-06
-1.253355e-05
-3.6319141e-06
-1.2273219e-05
-2.967807e-06
-1.2005072e-05
-2.3187002e-06
-1.172456e-05
-1.6851699e-06
-1.143463e-05
-1.0680145e-06
-1.1128452e-05
-4.6795382e-07
-1.081083e-05
1.1391537e-07
-1.0471493e-05
-1.0117483e-05
-3.1372785e-05
-1.8531283e-05
-3.0381495e-05
-1.8462409e-05
-2.9394614e-05
-1.8385115e-05
-2.8412526e-05
-1.8299666e-05
-2.7435615e-05
-1.8206195e-05
-2.6464248e-05
-1.8104952e-05
-2.5498783e-05
-1.7996143e-05
-2.4539575e-05
-1.7879999e-05
-2.3586961e-05
-1.7756754e-05
-2.2641273e-05
-1.7626637e-05
-2.1702834e-05
-1.7489814e-05
-2.0771958e-05
-1.7346527e-05
-1.9848952e-05
-1.7196982e-05
-1.8934114e-05
-1.7041304e-05
-1.8027744e-05
-1.6879631e-05
-1.7130129e-05
-1.6712114e-05
-1.6241559e-05
-1.6538814e-05
-1.5362316e-05
-1.6359877e-05
-1.4492686e-05
-1.6175306e-05
-1.3632949e-05
-1.5985244e-05
-1.2783384e-05
-1.5789708e-05
-1.194427e-05
-1.5588841e-05
-1.1115898e-05
-1.5382284e-05
-1.0298555e-05
-1.5170395e-05
-9.4925441e-06
-1.4952628e-05
-8.6981685e-06
-1.4729255e-05
-7.9157565e-06
-1.4499659e-05
-7.14563e-06
-1.4264231e-05
-6.3881613e-06
-1.4021559e-05
-5.6437143e-06
-1.3772506e-05
-4.9127179e-06
-1.3515177e-05
-4.195585e-06
-1.3250683e-05
-3.4928366e-06
-1.2975968e-05
-2.8049621e-06
-1.2692947e-05
-2.1326167e-06
-1.2396906e-05
-1.4763932e-06
-1.2090854e-05
-8.3711467e-07
-1.176773e-05
-2.1553797e-07
-1.1432407e-05
3.8716985e-07
-1.1074201e-05
9.6995588e-07
-1.0700269e-05
-1.0295255e-05
-3.2201355e-05
-1.9561715e-05
-3.1175079e-05
-1.9488685e-05
-3.0153369e-05
-1.9406825e-05
-2.913663e-05
-1.9316404e-05
-2.8125248e-05
-1.9217577e-05
-2.7119607e-05
-1.9110594e-05
-2.6120077e-05
-1.8995673e-05
-2.5127021e-05
-1.8873055e-05
-2.4140793e-05
-1.8742983e-05
-2.3161727e-05
-1.8605703e-05
-2.2190165e-05
-1.8461376e-05
-2.1226428e-05
-1.8310265e-05
-2.0270833e-05
-1.8152577e-05
-1.932369e-05
-1.7988446e-05
-1.8385307e-05
-1.7818015e-05
-1.7455984e-05
-1.7641437e-05
-1.6536016e-05
-1.7458782e-05
-1.56257e-05
-1.7270193e-05
-1.4725328e-05
-1.7075679e-05
-1.3835191e-05
-1.6875381e-05
-1.2955577e-05
-1.6669322e-05
-1.2086777e-05
-1.6457641e-05
-1.1229093e-05
-1.6239969e-05
-1.0382821e-05
-1.6016667e-05
-9.5482703e-06
-1.5787178e-05
-8.7257641e-06
-1.5551761e-05
-7.9156338e-06
-1.5309789e-05
-7.118218e-06
-1.5061647e-05
-6.3339051e-06
-1.4805872e-05
-5.5630666e-06
-1.4543345e-05
-4.8061462e-06
-1.4272097e-05
-4.0635751e-06
-1.3993254e-05
-3.3358897e-06
-1.3703653e-05
-2.623604e-06
-1.3405233e-05
-1.9273811e-06
-1.3093129e-05
-1.2478519e-06
-1.2770383e-05
-5.858495e-07
-1.2429732e-05
5.7805534e-08
-1.2076062e-05
6.8188041e-07
-1.1698276e-05
1.2853224e-06
-1.1303711e-05
-1.0876732e-05
-3.4105192e-05
-2.0696193e-05
-3.303862e-05
-2.0628287e-05
-3.1976358e-05
-2.0550947e-05
-3.0918827e-05
-2.0464356e-05
-2.986644e-05
-2.0368791e-05
-2.8819602e-05
-2.0264414e-05
-2.7778706e-05
-2.0151491e-05
-2.6744134e-05
-2.0030245e-05
-2.5716266e-05
-1.9900923e-05
-2.4695456e-05
-1.9763792e-05
-2.3682065e-05
-1.9619094e-05
-2.2676433e-05
-1.9467009e-05
-2.1678897e-05
-1.93078e-05
-2.0689785e-05
-1.914169e-05
-1.9709416e-05
-1.8968815e-05
-1.8738108e-05
-1.8789322e-05
-1.7776172e-05
-1.8603373e-05
-1.6823915e-05
-1.841104e-05
-1.588164e-05
-1.8212467e-05
-1.4949654e-05
-1.8007666e-05
-1.4028254e-05
-1.7796781e-05
-1.3117743e-05
-1.7579833e-05
-1.2218418e-05
-1.7356966e-05
-1.1330592e-05
-1.7127795e-05
-1.0454569e-05
-1.6892689e-05
-9.5906817e-06
-1.6651065e-05
-8.7392494e-06
-1.6403194e-05
-7.9006271e-06
-1.6148411e-05
-7.0751597e-06
-1.5887114e-05
-6.2632474e-06
-1.5617784e-05
-5.46528e-06
-1.5341312e-05
-4.681715e-06
-1.5055663e-05
-3.9129998e-06
-1.4761969e-05
-3.1596861e-06
-1.4456967e-05
-2.4223112e-06
-1.4142608e-05
-1.7015592e-06
-1.3813881e-05
-9.9807955e-07
-1.3473863e-05
-3.1273538e-07
-1.3115077e-05
3.535627e-07
-1.274236e-05
9.995605e-07
-1.2344274e-05
1.6242273e-06
-1.1928378e-05
2.2262225e-06
-1.1478728e-05
-1.100733e-05
-3.609565e-05
-2.1865704e-05
-3.4987879e-05
-2.1803964e-05
-3.3884126e-05
-2.173204e-05
-3.2784836e-05
-2.1650237e-05
-3.1690449e-05
-2.1558742e-05
-3.0601386e-05
-2.1457854e-05
-2.9518067e-05
-2.1347734e-05
-2.8440899e-05
-2.1228659e-05
-2.7370277e-05
-2.1100866e-05
-2.6306587e-05
-2.0964613e-05
-2.5250206e-05
-2.0820174e-05
-2.4201495e-05
-2.0667806e-05
-2.3160811e-05
-2.0507692e-05
-2.2128506e-05
-2.0340106e-05
-2.1104909e-05
-2.0165286e-05
-2.0090359e-05
-1.9983366e-05
-1.9085182e-05
-1.9794499e-05
-1.8089694e-05
-1.959886e-05
-1.7104222e-05
-1.9396512e-05
-1.6129075e-05
-1.9187614e-05
-1.5164567e-05
-1.8972174e-05
-1.4211013e-05
-1.8750335e-05
-1.326872e-05
-1.8522127e-05
-1.2337998e-05
-1.8287688e-05
-1.1419173e-05
-1.804662e-05
-1.0512561e-05
-1.7799301e-05
-9.6184963e-06
-1.754513e-05
-8.7373208e-06
-1.7284369e-05
-7.8693959e-06
-1.7016336e-05
-7.0150841e-06
-1.6741426e-05
-6.1747941e-06
-1.6458074e-05
-5.3489369e-06
-1.6167169e-05
-4.5379776e-06
-1.5866622e-05
-3.7423876e-06
-1.5557559e-05
-2.9627325e-06
-1.5236622e-05
-2.1995692e-06
-1.4905771e-05
-1.4536009e-06
-1.4559849e-05
-7.2551197e-07
-1.4201952e-05
-1.6201253e-08
-1.3824387e-05
6.7333441e-07
-1.3431896e-05
1.3418461e-06
-1.3012785e-05
1.9883249e-06
-1.2574857e-05
2.6114052e-06
-1.2101808e-05
3.2097887e-06
-1.1605714e-05
-1.1062619e-05
-3.7025497e-05
-2.301558e-05
-3.5879314e-05
-2.2950147e-05
-3.4737298e-05
-2.2874058e-05
-3.3599905e-05
-2.278763e-05
-3.2467586e-05
-2.2691061e-05
-3.1340782e-05
-2.2584658e-05
-3.0219923e-05
-2.2468593e-05
-2.910543e-05
-2.2343152e-05
-2.7997709e-05
-2.2208587e-05
-2.689716e-05
-2.2065162e-05
-2.580417e-05
-2.1913163e-05
-2.4719115e-05
-2.1752861e-05
-2.3642365e-05
-2.1584442e-05
-2.2574277e-05
-2.1408194e-05
-2.1515201e-05
-2.1224362e-05
-2.046548e-05
-2.1033087e-05
-1.9425451e-05
-2.0834528e-05
-1.839545e-05
-2.0628861e-05
-1.7375802e-05
-2.041616e-05
-1.6366832e-05
-2.0196583e-05
-1.5368868e-05
-1.9970138e-05
-1.438223e-05
-1.9736973e-05
-1.3407244e-05
-1.9497113e-05
-1.2444224e-05
-1.9250708e-05
-1.1493508e-05
-1.8997336e-05
-1.0555423e-05
-1.8737386e-05
-9.6303221e-06
-1.8470231e-05
-8.718556e-06
-1.8196135e-05
-7.8204951e-06
-1.7914397e-05
-6.9365167e-06
-1.7625404e-05
-6.0670475e-06
-1.7327543e-05
-5.2125049e-06
-1.7021712e-05
-4.3733787e-06
-1.6705748e-05
-3.5501529e-06
-1.6380785e-05
-2.7434128e-06
-1.6043362e-05
-1.9537382e-06
-1.5695445e-05
-1.1818545e-06
-1.5331733e-05
-4.2846637e-07
-1.495534e-05
3.0544374e-07
-1.4558297e-05
1.0188259e-06
-1.4145278e-05
1.7104785e-06
-1.3704438e-05
2.3793768e-06
-1.3243755e-05
3.024128e-06
-1.274656e-05
3.6433788e-06
-1.2224965e-05
-1.1654527e-05
-3.9154109e-05
-2.4262895e-05
-3.7964562e-05
-2.4205127e-05
-3.6778846e-05
-2.4135864e-05
-3.5597444e-05
-2.405546e-05
-3.4420834e-05
-2.396424e-05
-3.3249476e-05
-2.3862419e-05
-3.2083825e-05
-2.3750309e-05
-3.0924329e-05
-2.3628089e-05
-2.9771413e-05
-2.3496068e-05
-2.862551e-05
-2.335449e-05
-2.7487024e-05
-2.3203648e-05
-2.6356358e-05
-2.304383e-05
-2.52339e-05
-2.2875319e-05
-2.4120032e-05
-2.269831e-05
-2.3015121e-05
-2.2513105e-05
-2.1919532e-05
-2.2319951e-05
-2.0833614e-05
-2.2119004e-05
-1.9757722e-05
-2.191042e-05
-1.8692197e-05
-2.1694386e-05
-1.7637381e-05
-2.1470977e-05
-1.6593611e-05
-2.1240353e-05
-1.556122e-05
-2.1002529e-05
-1.4540545e-05
-2.0757648e-05
-1.3531916e-05
-2.0505743e-05
-1.2535666e-05
-2.0246958e-05
-1.155214e-05
-1.9980862e-05
-1.0581684e-05
-1.9707843e-05
-9.6246513e-06
-1.9427263e-05
-8.6814141e-06
-1.9139372e-05
-7.7523529e-06
-1.8843458e-05
-6.8378592e-06
-1.8539897e-05
-5.9383741e-06
-1.8227029e-05
-5.054335e-06
-1.7905751e-05
-4.1862393e-06
-1.7573844e-05
-3.3345948e-06
-1.723243e-05
-2.5000036e-06
-1.6877953e-05
-1.683071e-06
-1.6512378e-05
-8.8453675e-07
-1.6130267e-05
-1.0515639e-07
-1.573472e-05
6.540027e-07
-1.5317456e-05
1.3918786e-06
-1.4883154e-05
2.1073217e-06
-1.4419881e-05
2.7992676e-06
-1.3935701e-05
3.4662951e-06
-1.3413587e-05
4.106996e-06
-1.2865666e-05
4.7194962e-06
-1.2267027e-05
-1.163578e-05
-4.0142487e-05
-2.549673e-05
-3.8912105e-05
-2.5435508e-05
-3.7685691e-05
-2.5362278e-05
-3.6463748e-05
-2.5277404e-05
-3.5246764e-05
-2.5181224e-05
-3.4035218e-05
-2.5073964e-05
-3.2829581e-05
-2.4955946e-05
-3.1630309e-05
-2.4827361e-05
-3.043785e-05
-2.4688527e-05
-2.9252642e-05
-2.4539699e-05
-2.8075108e-05
-2.4381182e-05
-2.6905661e-05
-2.4213277e-05
-2.5744703e-05
-2.4036277e-05
-2.4592627e-05
-2.3850386e-05
-2.3449817e-05
-2.3655915e-05
-2.2316641e-05
-2.3453127e-05
-2.1193474e-05
-2.3242171e-05
-2.0080669e-05
-2.3023225e-05
-1.8978587e-05
-2.2796468e-05
-1.788758e-05
-2.2561984e-05
-1.680799e-05
-2.2319943e-05
-1.5740171e-05
-2.2070348e-05
-1.4684467e-05
-2.1813351e-05
-1.3641221e-05
-2.1548989e-05
-1.2610777e-05
-2.1277403e-05
-1.1593493e-05
-2.0998145e-05
-1.0589723e-05
-2.0711613e-05
-9.5998401e-06
-2.0417146e-05
-8.6242202e-06
-2.0114992e-05
-7.6632671e-06
-1.9804411e-05
-6.7173838e-06
-1.9485781e-05
-5.7870229e-06
-1.915739e-05
-4.8726391e-06
-1.8820135e-05
-3.9747491e-06
-1.8471734e-05
-3.0938771e-06
-1.8113302e-05
-2.230644e-06
-1.7741187e-05
-1.3856788e-06
-1.7357343e-05
-5.5974286e-07
-1.6956203e-05
2.4632454e-07
-1.6540788e-05
1.0314027e-06
-1.6102535e-05
1.7944592e-06
-1.564621e-05
2.534365e-06
-1.5159787e-05
3.2500066e-06
-1.4651343e-05
3.9399378e-06
-1.4103518e-05
4.6026903e-06
-1.3528418e-05
5.2363601e-06
-1.2900696e-05
-1.2238436e-05
-4.2415685e-05
-2.6824622e-05
-4.113968e-05
-2.6772735e-05
-3.9867253e-05
-2.6707935e-05
-3.8598941e-05
-2.6630591e-05
-3.7335259e-05
-2.6541085e-05
-3.6076708e-05
-2.6439776e-05
-3.4823789e-05
-2.6326883e-05
-3.3576986e-05
-2.620275e-05
-3.2336765e-05
-2.6067582e-05
-3.1103597e-05
-2.5921695e-05
-2.9877926e-05
-2.576537e-05
-2.8660192e-05
-2.5598915e-05
-2.7450823e-05
-2.5422647e-05
-2.6250232e-05
-2.5236868e-05
-2.5058827e-05
-2.5041792e-05
-2.3877002e-05
-2.483774e-05
-2.2705141e-05
-2.4624988e-05
-2.1543627e-05
-2.4403686e-05
-2.0392832e-05
-2.417402e-05
-1.9253121e-05
-2.3936178e-05
-1.8124858e-05
-2.3690247e-05
-1.7008409e-05
-2.3436392e-05
-1.5904127e-05
-2.317463e-05
-1.4812372e-05
-2.2905106e-05
-1.37335e-05
-2.2627861e-05
-1.2667866e-05
-2.2343036e-05
-1.1615841e-05
-2.205017e-05
-1.0577793e-05
-2.1749661e-05
-9.5541059e-06
-2.1440833e-05
-8.5451753e-06
-2.1123923e-05
-7.5514084e-06
-2.0798178e-05
-6.5732289e-06
-2.046396e-05
-5.6111043e-06
-2.0119514e-05
-4.665506e-06
-1.9765733e-05
-3.7369664e-06
-1.9400274e-05
-2.826031e-06
-1.9024237e-05
-1.9333392e-06
-1.8633878e-05
-1.0595446e-06
-1.8231138e-05
-2.0544348e-07
-1.7810305e-05
6.2802312e-07
-1.7374255e-05
1.4397252e-06
-1.6914237e-05
2.2286747e-06
-1.643516e-05
2.9937364e-06
-1.5924849e-05
3.7337414e-06
-1.5391348e-05
4.4472219e-06
-1.4816999e-05
5.1326476e-06
-1.4213844e-05
5.7880841e-06
-1.3556133e-05
6.4115253e-06
-1.2861877e-05
-1.2093937e-05
-4.4786706e-05
-2.8188178e-05
-4.3464137e-05
-2.8147192e-05
-4.2144708e-05
-2.8092164e-05
-4.0828994e-05
-2.8023649e-05
-3.951754e-05
-2.7942046e-05
-3.8210879e-05
-2.7847746e-05
-3.6909537e-05
-2.7741118e-05
-3.5614021e-05
-2.7622398e-05
-3.4324829e-05
-2.7491942e-05
-3.3042456e-05
-2.7349955e-05
-3.1767369e-05
-2.7196782e-05
-3.0500039e-05
-2.70327e-05
-2.9240921e-05
-2.6858033e-05
-2.7990452e-05
-2.6673115e-05
-2.6749061e-05
-2.6478259e-05
-2.5517165e-05
-2.6273688e-05
-2.4295178e-05
-2.6059727e-05
-2.3083494e-05
-2.5836671e-05
-2.1882507e-05
-2.5604673e-05
-2.06926e-05
-2.5363927e-05
-1.9514157e-05
-2.5114621e-05
-1.8347553e-05
-2.4856852e-05
-1.7193156e-05
-2.4590789e-05
-1.6051345e-05
-2.4316441e-05
-1.4922487e-05
-2.4033964e-05
-1.3806948e-05
-2.3743401e-05
-1.2705101e-05
-2.3444883e-05
-1.1617326e-05
-2.3137945e-05
-1.0544001e-05
-2.2822986e-05
-9.4855288e-06
-2.2499306e-05
-8.442314e-06
-2.2167138e-05
-7.4147866e-06
-2.1825706e-05
-6.4033789e-06
-2.1475368e-05
-5.4085734e-06
-2.111432e-05
-4.4308642e-06
-2.0743442e-05
-3.4707963e-06
-2.0360342e-05
-2.528939e-06
-1.9966095e-05
-1.6059479e-06
-1.955687e-05
-7.0250152e-07
-1.9134584e-05
1.8052875e-07
-1.8693335e-05
1.0421257e-06
-1.8235852e-05
1.8811994e-06
-1.775331e-05
2.6967801e-06
-1.7250741e-05
3.4877055e-06
-1.6715775e-05
4.252766e-06
-1.6156408e-05
4.9904575e-06
-1.5554691e-05
5.6991949e-06
-1.4922582e-05
6.3770118e-06
-1.423395e-05
7.0218294e-06
-1.3506695e-05
-1.2703164e-05
-4.5887989e-05
-2.9558237e-05
-4.4520591e-05
-2.9514591e-05
-4.3156457e-05
-2.9456298e-05
-4.1796163e-05
-2.9383944e-05
-4.0440287e-05
-2.9297923e-05
-3.9089376e-05
-2.9198657e-05
-3.7743969e-05
-2.9086525e-05
-3.6404592e-05
-2.8961775e-05
-3.507176e-05
-2.8824775e-05
-3.3745975e-05
-2.867574e-05
-3.2427734e-05
-2.8515023e-05
-3.1117516e-05
-2.8342919e-05
-2.9815787e-05
-2.8159762e-05
-2.8523004e-05
-2.7965899e-05
-2.7239603e-05
-2.776166e-05
-2.5966028e-05
-2.7547263e-05
-2.4702691e-05
-2.7323064e-05
-2.3450009e-05
-2.7089353e-05
-2.2208385e-05
-2.6846297e-05
-2.097822e-05
-2.6594093e-05
-1.9759905e-05
-2.6332936e-05
-1.855383e-05
-2.6062927e-05
-1.7360379e-05
-2.578424e-05
-1.6179937e-05
-2.5496883e-05
-1.5012885e-05
-2.5201016e-05
-1.3859609e-05
-2.4896677e-05
-1.2720488e-05
-2.4584004e-05
-1.1595915e-05
-2.4262518e-05
-1.0486292e-05
-2.393261e-05
-9.392022e-06
-2.3593575e-05
-8.3135323e-06
-2.3245627e-05
-7.2512632e-06
-2.2887975e-05
-6.2056673e-06
-2.2520964e-05
-5.1772416e-06
-2.2142746e-05
-4.1664946e-06
-2.1754189e-05
-3.1739925e-06
-2.1352844e-05
-2.2003221e-06
-2.0939765e-05
-1.2461652e-06
-2.0511027e-05
-3.1223486e-07
-2.0068515e-05
6.0049941e-07
-1.9606069e-05
1.4909893e-06
-1.9126342e-05
2.3582113e-06
-1.8620532e-05
3.201181e-06
-1.8093711e-05
4.0187056e-06
-1.7533299e-05
4.8095273e-06
-1.694723e-05
5.5721158e-06
-1.6317279e-05
6.3048242e-06
-1.565529e-05
7.0056551e-06
-1.4934781e-05
7.6724512e-06
-1.4173491e-05
-1.3333305e-05
-4.8413694e-05
-3.1005226e-05
-4.6997372e-05
-3.0974559e-05
-4.5583806e-05
-3.0928157e-05
-4.4173625e-05
-3.086648e-05
-4.2767436e-05
-3.0790132e-05
-4.1365816e-05
-3.0699544e-05
-3.9969337e-05
-3.0595135e-05
-3.8578556e-05
-3.0477306e-05
-3.7194014e-05
-3.0346318e-05
-3.5816246e-05
-3.0202543e-05
-3.4445767e-05
-3.0046219e-05
-3.3083092e-05
-2.9877698e-05
-3.1728714e-05
-2.9697297e-05
-3.0383112e-05
-2.9505364e-05
-2.9046758e-05
-2.9302253e-05
-2.7720115e-05
-2.9088303e-05
-2.6403618e-05
-2.886376e-05
-2.5097718e-05
-2.8628964e-05
-2.3802825e-05
-2.8384246e-05
-2.2519367e-05
-2.8129755e-05
-2.1247756e-05
-2.7865704e-05
-1.9988394e-05
-2.7592298e-05
-1.8741686e-05
-2.7309635e-05
-1.7508032e-05
-2.7017893e-05
-1.6287829e-05
-2.6717087e-05
-1.5081471e-05
-2.6407373e-05
-1.3889351e-05
-2.6088798e-05
-1.2711865e-05
-2.5761489e-05
-1.1549428e-05
-2.5424956e-05
-1.0402442e-05
-2.5079596e-05
-9.2713386e-06
-2.4724678e-05
-8.1565483e-06
-2.4360418e-05
-7.05853e-06
-2.3985993e-05
-5.9777538e-06
-2.360174e-05
-4.9147363e-06
-2.3205763e-05
-3.8699992e-06
-2.2798927e-05
-2.8441316e-06
-2.2378711e-05
-1.8377426e-06
-2.1946154e-05
-8.5152588e-07
-2.1497243e-05
1.1372392e-07
-2.1033765e-05
1.0569579e-06
-2.0549303e-05
1.9771494e-06
-2.0046533e-05
2.8733221e-06
-1.9516705e-05
3.7444535e-06
-1.8964842e-05
4.58933e-06
-1.8378176e-05
5.4066436e-06
-1.7764544e-05
6.1948321e-06
-1.7105468e-05
6.9521906e-06
-1.6412649e-05
7.6766858e-06
-1.5659276e-05
8.3660852e-06
-1.4862891e-05
-1.3984952e-05
-4.957744e-05
-3.2471396e-05
-4.8113471e-05
-3.2438529e-05
-4.6652368e-05
-3.238926e-05
-4.5194774e-05
-3.2324074e-05
-4.3741312e-05
-3.2243595e-05
-4.2292588e-05
-3.2148268e-05
-4.0849188e-05
-3.2038536e-05
-3.9411681e-05
-3.1914813e-05
-3.7980636e-05
-3.1777363e-05
-3.6556595e-05
-3.1626584e-05
-3.5140099e-05
-3.1462716e-05
-3.3731666e-05
-3.128613e-05
-3.2331816e-05
-3.1097147e-05
-3.0941044e-05
-3.0896136e-05
-2.9559836e-05
-3.0683461e-05
-2.8188658e-05
-3.0459481e-05
-2.6827982e-05
-3.0224437e-05
-2.5478249e-05
-2.9978697e-05
-2.4139908e-05
-2.9722587e-05
-2.2813381e-05
-2.9456283e-05
-2.1499102e-05
-2.9179983e-05
-2.019749e-05
-2.8893911e-05
-1.8908958e-05
-2.8598166e-05
-1.7633917e-05
-2.8292935e-05
-1.637278e-05
-2.7978224e-05
-1.5125961e-05
-2.7654193e-05
-1.3893867e-05
-2.7320892e-05
-1.2676897e-05
-2.6978459e-05
-1.1475486e-05
-2.6626367e-05
-1.0290053e-05
-2.6265028e-05
-9.1210354e-06
-2.5893696e-05
-7.9688928e-06
-2.551256e-05
-6.8340928e-06
-2.5120793e-05
-5.7171236e-06
-2.4718709e-05
-4.6185149e-06
-2.4304372e-05
-3.5388095e-06
-2.3878632e-05
-2.4786175e-06
-2.3438903e-05
-1.4385663e-06
-2.2986206e-05
-4.1938337e-07
-2.2516427e-05
5.7802528e-07
-2.2031173e-05
1.5525764e-06
-2.1523854e-05
2.5033133e-06
-2.099727e-05
3.4292617e-06
-2.0442654e-05
4.3293587e-06
-1.9864939e-05
5.2023643e-06
-1.9251181e-05
6.0469175e-06
-1.8609097e-05
6.861428e-06
-1.7919978e-05
7.6441298e-06
-1.719535e-05
8.3929567e-06
-1.6408103e-05
9.105603e-06
-1.5575537e-05
9.7793721e-06
-1.4658722e-05
-1.3683275e-05
-5.2263102e-05
-3.4004077e-05
-5.074777e-05
-3.3986728e-05
-4.923473e-05
-3.3951569e-05
-4.772467e-05
-3.3899321e-05
-4.6218247e-05
-3.3830497e-05
-4.471611e-05
-3.3745732e-05
-4.3218878e-05
-3.3645501e-05
-4.172716e-05
-3.3530253e-05
-4.0241544e-05
-3.3400429e-05
-3.8762607e-05
-3.3256299e-05
-3.7290918e-05
-3.3098272e-05
-3.5827034e-05
-3.29266e-05
-3.4371494e-05
-3.274167e-05
-3.2924823e-05
-3.2543818e-05
-3.148754e-05
-3.2333419e-05
-3.0060146e-05
-3.2110854e-05
-2.8643124e-05
-3.1876504e-05
-2.7236957e-05
-3.1630604e-05
-2.5842108e-05
-3.1373546e-05
-2.4459025e-05
-3.1105669e-05
-2.3088165e-05
-3.0827143e-05
-2.172996e-05
-3.0538187e-05
-2.0384848e-05
-3.0239023e-05
-1.9053262e-05
-2.9929752e-05
-1.7735625e-05
-2.9610572e-05
-1.6432362e-05
-2.9281487e-05
-1.5143895e-05
-2.894266e-05
-1.3870646e-05
-2.8594141e-05
-1.2613045e-05
-2.823606e-05
-1.1371522e-05
-2.786789e-05
-1.014652e-05
-2.7490031e-05
-8.9384951e-06
-2.7101721e-05
-7.7479126e-06
-2.6703143e-05
-6.5752654e-06
-2.6293441e-05
-5.4210528e-06
-2.5872922e-05
-4.2858277e-06
-2.5439597e-05
-3.1701532e-06
-2.4994307e-05
-2.0746487e-06
-2.4534408e-05
-9.9997751e-07
-2.4060877e-05
5.3081533e-08
-2.3569486e-05
1.0835051e-06
-2.3061597e-05
2.0902465e-06
-2.2530596e-05
3.0724021e-06
-2.1979426e-05
4.0289696e-06
-2.1399221e-05
4.9588511e-06
-2.0794821e-05
5.8607764e-06
-2.0153107e-05
6.7333362e-06
-1.9481657e-05
7.5749138e-06
-1.8761556e-05
8.3836736e-06
-1.800411e-05
9.1575214e-06
-1.7181951e-05
9.8940695e-06
-1.6312085e-05
1.0590591e-05
-1.5355243e-05
-1.4336672e-05
-5.3488915e-05
-3.5571685e-05
-5.1922965e-05
-3.5552679e-05
-5.0359394e-05
-3.551514e-05
-4.879891e-05
-3.5459805e-05
-4.7242206e-05
-3.5387201e-05
-4.5689943e-05
-3.5297996e-05
-4.414276e-05
-3.5192684e-05
-4.2601281e-05
-3.5071733e-05
-4.1066122e-05
-3.4935588e-05
-3.9537879e-05
-3.4784543e-05
-3.8017127e-05
-3.4619024e-05
-3.6504449e-05
-3.4439278e-05
-3.5000399e-05
-3.424572e-05
-3.3505524e-05
-3.4038693e-05
-3.2020355e-05
-3.3818588e-05
-3.0545405e-05
-3.3585805e-05
-2.9081187e-05
-3.3340722e-05
-2.7628181e-05
-3.3083611e-05
-2.6186878e-05
-3.2814849e-05
-2.4757741e-05
-3.2534807e-05
-2.3341235e-05
-3.2243649e-05
-2.1937816e-05
-3.1941607e-05
-2.0547935e-05
-3.1628904e-05
-1.9172026e-05
-3.1305661e-05
-1.7810539e-05
-3.0972059e-05
-1.6463907e-05
-3.0628119e-05
-1.5132578e-05
-3.0273989e-05
-1.3816982e-05
-2.9909737e-05
-1.2517558e-05
-2.9535484e-05
-1.123476e-05
-2.9150688e-05
-9.9690415e-06
-2.875575e-05
-8.7208731e-06
-2.8349889e-05
-7.4907416e-06
-2.7933275e-05
-6.2791487e-06
-2.7505034e-05
-5.0866259e-06
-2.7065445e-05
-3.9137263e-06
-2.6612497e-05
-2.761046e-06
-2.6146987e-05
-1.6292195e-06
-2.5666235e-05
-5.1894034e-07
-2.5171156e-05
5.6889369e-07
-2.465732e-05
1.6332193e-06
-2.4125923e-05
2.6730643e-06
-2.3570441e-05
3.6875271e-06
-2.2993889e-05
4.6755821e-06
-2.2387276e-05
5.6360878e-06
-2.1755327e-05
6.5677497e-06
-2.1084769e-05
7.46911e-06
-2.0383017e-05
8.3385124e-06
-1.9630959e-05
9.174064e-06
-1.8839662e-05
9.9736343e-06
-1.7981521e-05
1.073476e-05
-1.7073211e-05
1.1454679e-05
-1.6075162e-05
1.2130202e-05
-1.5012195e-05
-1.3827737e-05
-5.6338987e-05
-3.7192364e-05
-5.4719172e-05
-3.71915e-05
-5.3101078e-05
-3.7170773e-05
-5.1485468e-05
-3.713075e-05
-4.987307e-05
-3.7072203e-05
-4.8264586e-05
-3.6995685e-05
-4.6660699e-05
-3.6901884e-05
-4.5062079e-05
-3.6791304e-05
-4.3469368e-05
-3.6664445e-05
-4.1883193e-05
-3.6521763e-05
-4.0304169e-05
-3.6363567e-05
-3.8732904e-05
-3.619029e-05
-3.7169984e-05
-3.6002198e-05
-3.5615986e-05
-3.5799718e-05
-3.4071479e-05
-3.5583201e-05
-3.2537006e-05
-3.535306e-05
-3.1013103e-05
-3.5109709e-05
-2.9500284e-05
-3.485354e-05
-2.7999069e-05
-3.4584826e-05
-2.6509942e-05
-3.4303975e-05
-2.5033395e-05
-3.4011354e-05
-2.3569905e-05
-3.3707139e-05
-2.2119941e-05
-3.3391571e-05
-2.0683964e-05
-3.3064881e-05
-1.926244e-05
-3.2727185e-05
-1.7855817e-05
-3.2378682e-05
-1.6464561e-05
-3.2019375e-05
-1.5089116e-05
-3.1649434e-05
-1.3729932e-05
-3.1268921e-05
-1.238747e-05
-3.0877946e-05
-1.1062195e-05
-3.0475963e-05
-9.7545782e-06
-3.0063367e-05
-8.4651026e-06
-2.9639365e-05
-7.1942776e-06
-2.92041e-05
-5.942622e-06
-2.8756689e-05
-4.7106761e-06
-2.8297391e-05
-3.4990279e-06
-2.7824145e-05
-2.3082821e-06
-2.7337733e-05
-1.1391033e-06
-2.6835414e-05
7.7688312e-09
-2.6318028e-05
1.1313049e-06
-2.5780856e-05
2.2304584e-06
-2.5225076e-05
3.3043498e-06
-2.4644332e-05
4.3520327e-06
-2.4041572e-05
5.3724694e-06
-2.3407713e-05
6.364461e-06
-2.2747318e-05
7.3266973e-06
-2.2047005e-05
8.2576575e-06
-2.1313977e-05
9.1556662e-06
-2.0528967e-05
1.0018761e-05
-1.9702757e-05
1.0844779e-05
-1.8807539e-05
1.1631174e-05
-1.7859606e-05
1.2375157e-05
-1.6819145e-05
1.3073439e-05
-1.5710477e-05
1.3722432e-05
-1.447673e-05
1.4317926e-05
-1.3154259e-05
-1.16627e-05
-5.7625323e-05
-3.8866944e-05
-5.5951737e-05
-3.8865086e-05
-5.4279956e-05
-3.8842555e-05
-5.2610753e-05
-3.8799953e-05
-5.0944884e-05
-3.8738073e-05
-4.9283077e-05
-3.8657492e-05
-4.762604e-05
-3.8558921e-05
-4.5974453e-05
-3.8442891e-05
-4.4328986e-05
-3.8309911e-05
-4.269028e-05
-3.816047e-05
-4.1058976e-05
-3.7994871e-05
-3.9435698e-05
-3.7813568e-05
-3.7821049e-05
-3.7616846e-05
-3.6215629e-05
-3.7405138e-05
-3.462002e-05
-3.7178811e-05
-3.3034789e-05
-3.6938291e-05
-3.1460482e-05
-3.6684016e-05
-2.989764e-05
-3.6416382e-05
-2.8346785e-05
-3.6135681e-05
-2.6808431e-05
-3.584233e-05
-2.5283082e-05
-3.5536703e-05
-2.3771223e-05
-3.5218998e-05
-2.2273347e-05
-3.4889447e-05
-2.0789936e-05
-3.4548292e-05
-1.9321458e-05
-3.4195664e-05
-1.786839e-05
-3.383175e-05
-1.6431195e-05
-3.345657e-05
-1.5010347e-05
-3.3070281e-05
-1.3606316e-05
-3.2672953e-05
-1.2219563e-05
-3.22647e-05
-1.0850578e-05
-3.1844948e-05
-9.4998486e-06
-3.1414096e-05
-8.1678796e-06
-3.0971334e-05
-6.8551856e-06
-3.0516794e-05
-5.5623144e-06
-3.004956e-05
-4.2898219e-06
-2.9569883e-05
-3.0383138e-06
-2.9075653e-05
-1.8084147e-06
-2.8567632e-05
-6.0080607e-07
-2.8043022e-05
5.8362048e-07
-2.7502455e-05
1.7438007e-06
-2.6941036e-05
2.8787746e-06
-2.636005e-05
3.9876679e-06
-2.5753226e-05
5.0695171e-06
-2.5123421e-05
6.1232335e-06
-2.4461429e-05
7.1475995e-06
-2.3771684e-05
8.1412611e-06
-2.3040667e-05
9.1026566e-06
-2.2275373e-05
1.0030069e-05
-2.145638e-05
1.0921476e-05
-2.0594164e-05
1.1774676e-05
-1.9660739e-05
1.2587054e-05
-1.8671984e-05
1.3355778e-05
-1.7587869e-05
1.4077467e-05
-1.6432166e-05
1.4748511e-05
-1.5147775e-05
1.5364582e-05
-1.3770331e-05
-1.221925e-05
-5.8913183e-05
-4.0596955e-05
-5.718423e-05
-4.0594039e-05
-5.5457155e-05
-4.056963e-05
-5.3732769e-05
-4.0524339e-05
-5.2011841e-05
-4.0459002e-05
-5.0295129e-05
-4.0374204e-05
-4.8583357e-05
-4.0270693e-05
-4.6877235e-05
-4.0149014e-05
-4.5177442e-05
-4.0009704e-05
-4.3484654e-05
-3.9853257e-05
-4.1799525e-05
-3.968e-05
-4.012269e-05
-3.9490402e-05
-3.8454786e-05
-3.9284751e-05
-3.6796431e-05
-3.9063493e-05
-3.5148212e-05
-3.8827029e-05
-3.3510723e-05
-3.857578e-05
-3.1884532e-05
-3.8310207e-05
-3.0270188e-05
-3.8030726e-05
-2.866824e-05