/*--------------------------------*- C++ -*----------------------------------*\
| =========                 |                                                 |
| \\      /  F ield         | OpenFOAM: The Open Source CFD Toolbox           |
|  \\    /   O peration     | Version:  2.4.0                                 |
|   \\  /    A nd           | Web:      www.OpenFOAM.org                      |
|    \\/     M anipulation  |                                                 |
\*---------------------------------------------------------------------------*/
FoamFile
{
    version     2.0;
    format      ascii;
    class       volScalarField;
    location    "330";
    object      nut;
}
// * * * * * * * * * * * * * * * * * * * * * * * * * * * * * * * * * * * * * //

dimensions      [0 2 -1 0 0 0 0];

internalField   nonuniform List<scalar> 
19475
(
2.9460784e-12
1.5967371e-12
4.6062698e-12
2.8287868e-12
3.5233785e-12
1.1293938e-12
4.6892231e-13
5.1388543e-14
2.6712534e-13
5.6738382e-13
3.8722029e-13
3.0547342e-13
1.6895424e-13
1.3380283e-13
9.0953616e-14
8.2020041e-14
6.4394325e-14
6.1436317e-14
5.2275034e-14
4.9136426e-14
4.2875773e-14
3.9704565e-14
3.5354175e-14
3.3815046e-14
3.2045795e-14
3.1820582e-14
3.1656667e-14
3.2715394e-14
3.4216489e-14
3.6939155e-14
4.0531537e-14
4.5573733e-14
5.1954432e-14
6.0143046e-14
6.9997864e-14
8.1559213e-14
9.3738758e-14
1.0669619e-13
1.2055094e-13
1.3506241e-13
7.0621777e-13
6.773146e-13
6.4910695e-13
6.2163655e-13
5.9487134e-13
5.6884455e-13
5.4350224e-13
5.1889384e-13
4.9496228e-13
4.7178179e-13
4.4927461e-13
4.2753075e-13
4.0643587e-13
3.861044e-13
3.663881e-13
3.4744558e-13
3.2908607e-13
3.1151646e-13
2.9448602e-13
2.78263e-13
2.6252612e-13
2.4762605e-13
2.3315324e-13
2.1955701e-13
2.0631901e-13
1.9401016e-13
1.8197744e-13
1.7094541e-13
1.6009514e-13
1.5033308e-13
1.4063524e-13
1.3213254e-13
1.2355688e-13
1.1631788e-13
1.0885076e-13
1.0290768e-13
9.6562756e-14
9.1985231e-14
8.6812551e-14
8.3723232e-14
7.9836285e-14
7.8440026e-14
7.6051401e-14
7.6617899e-14
7.5602295e-14
7.7401036e-14
7.9433357e-14
8.0146876e-14
8.1576103e-14
7.9357763e-14
7.7580402e-14
7.2658221e-14
6.7992341e-14
6.1114706e-14
5.4462763e-14
4.6589298e-14
3.9116408e-14
3.1363806e-14
2.4368477e-14
1.792415e-14
1.263565e-14
9.6390659e-15
1.499664e-14
2.3728351e-14
3.6769429e-14
5.5632813e-14
8.1060799e-14
1.1453132e-13
1.5639677e-13
2.0790651e-13
2.6865546e-13
3.3909294e-13
4.1611001e-13
4.9508893e-13
5.7670747e-13
6.6141042e-13
7.4731795e-13
8.3601672e-13
9.3600113e-13
1.0112324e-12
1.1028942e-12
1.2125638e-12
1.3443344e-12
1.498188e-12
1.6900926e-12
1.9344089e-12
2.2925188e-12
2.7228339e-12
3.2970591e-12
3.9766946e-12
4.9137175e-12
6.0297375e-12
7.6428413e-12
9.6196532e-12
1.257745e-11
1.6268213e-11
2.1732319e-11
2.7354376e-11
3.3834307e-11
3.4241842e-11
3.0717456e-11
2.2462153e-11
1.6373734e-11
8.8358148e-12
6.1919202e-12
2.3666385e-12
2.6405414e-12
6.2052703e-13
2.2498746e-12
4.355555e-12
3.4232723e-12
5.0915732e-12
1.6175263e-11
2.7214624e-12
1.5533112e-12
7.0143138e-13
1.4672176e-12
6.437213e-13
4.2206371e-13
3.1835365e-13
1.7639678e-13
1.3723226e-13
9.4811124e-14
8.5200796e-14
6.814608e-14
6.5038504e-14
5.6389001e-14
5.3399515e-14
4.7600805e-14
4.472012e-14
4.0843519e-14
3.9723326e-14
3.8561658e-14
3.8972808e-14
3.9597749e-14
4.1524859e-14
4.4068028e-14
4.7979698e-14
5.2983049e-14
5.9663317e-14
6.7977637e-14
7.8422238e-14
9.0923908e-14
1.0555109e-13
1.212858e-13
1.3832974e-13
1.5691825e-13
1.7691982e-13
4.1630779e-12
4.1207017e-12
4.0781197e-12
4.0353853e-12
3.9924745e-12
3.949427e-12
3.9061868e-12
3.8627994e-12
3.8192024e-12
3.7754709e-12
3.731527e-12
3.6874704e-12
3.6431787e-12
3.5987712e-12
3.5540742e-12
3.509252e-12
3.4640805e-12
3.4187805e-12
3.3730489e-12
3.3271724e-12
3.2807476e-12
3.2341511e-12
3.1868545e-12
3.1393502e-12
3.0909469e-12
3.042289e-12
2.9924594e-12
2.9423122e-12
2.8906543e-12
2.838596e-12
2.784575e-12
2.7300275e-12
2.6729174e-12
2.6151055e-12
2.5539651e-12
2.4919017e-12
2.4255797e-12
2.3580715e-12
2.285246e-12
2.2109209e-12
2.1302288e-12
2.0476946e-12
1.9580575e-12
1.8664124e-12
1.7621152e-12
1.6643872e-12
1.6347159e-12
1.6395586e-12
1.6616794e-12
1.6829705e-12
1.7043481e-12
1.7206842e-12
1.7332776e-12
1.7404549e-12
1.7432861e-12
1.7417228e-12
1.7367337e-12
1.7291192e-12
1.7201036e-12
1.7115573e-12
1.7075982e-12
1.7105037e-12
1.723837e-12
1.7426868e-12
1.7673396e-12
1.7988482e-12
1.8374677e-12
1.8841008e-12
1.9384881e-12
2.0010674e-12
2.0706188e-12
2.1457021e-12
2.2187529e-12
2.2840651e-12
2.3451587e-12
2.4040265e-12
2.4603848e-12
2.4305633e-12
8.4847974e-12
7.4491711e-12
7.0780474e-12
7.0377473e-12
7.1590604e-12
7.3893426e-12
7.7438891e-12
8.2725072e-12
9.030645e-12
9.9545911e-12
1.1132092e-11
1.2812576e-11
1.5896246e-11
1.8236534e-11
2.1445268e-11
2.5507403e-11
1.4430204e-11
1.867979e-11
2.5373246e-11
3.2328787e-11
3.9711915e-11
4.0616746e-11
3.7147442e-11
2.8722057e-11
4.6224472e-11
3.0231222e-11
2.134081e-11
1.3781172e-11
1.2702156e-11
2.9101967e-12
6.4820183e-12
6.6702362e-11
8.4588597e-12
6.0308488e-11
2.9526188e-10
3.9339866e-11
2.5686405e-11
1.4598367e-11
2.8448249e-11
2.8664993e-12
1.5857844e-12
9.3941247e-13
5.2381515e-13
3.6462779e-13
2.8005884e-13
2.4714747e-13
2.205629e-13
2.1130581e-13
2.0186011e-13
1.9825612e-13
1.9418344e-13
1.9344754e-13
1.9394443e-13
1.9956192e-13
2.0857087e-13
2.2162938e-13
2.3802431e-13
2.5883039e-13
2.8428401e-13
3.1557134e-13
3.5348501e-13
3.9943162e-13
4.5460452e-13
5.2060845e-13
5.9855586e-13
6.8908043e-13
7.9127989e-13
9.0646873e-13
1.0373299e-12
1.1856329e-12
7.9028007e-11
7.8624297e-11
7.820321e-11
7.7765149e-11
7.7310174e-11
7.6838556e-11
7.6350041e-11
7.5844734e-11
7.5322305e-11
7.478304e-11
7.4226655e-11
7.3653694e-11
7.3063562e-11
7.2456778e-11
7.1832243e-11
7.1190663e-11
7.0530599e-11
6.9853122e-11
6.9156143e-11
6.8441069e-11
6.7704898e-11
6.6949489e-11
6.6170715e-11
6.5371176e-11
6.4545142e-11
6.3696336e-11
6.2816528e-11
6.1911232e-11
6.0969172e-11
5.9998187e-11
5.8982611e-11
5.7933345e-11
5.6828757e-11
5.5683997e-11
5.4469836e-11
5.3207158e-11
5.1857719e-11
5.0449455e-11
4.8934583e-11
4.734813e-11
4.5635594e-11
4.3836385e-11
4.1898413e-11
3.9861521e-11
3.7575393e-11
3.5384945e-11
3.4693825e-11
3.4788033e-11
3.5251522e-11
3.5764054e-11
3.6270478e-11
3.6723437e-11
3.7088849e-11
3.7375204e-11
3.7561263e-11
3.7672636e-11
3.7700809e-11
3.7676088e-11
3.7606491e-11
3.7537299e-11
3.7548004e-11
3.7667342e-11
3.7862947e-11
3.8118348e-11
3.8422039e-11
3.8769805e-11
3.9153484e-11
3.9565708e-11
3.9994227e-11
4.0425883e-11
4.0841026e-11
4.1198995e-11
4.1391005e-11
4.1376771e-11
4.1221027e-11
4.0959709e-11
4.0618596e-11
3.8140246e-11
1.8067051e-10
1.5388822e-10
1.423385e-10
1.3837953e-10
1.3775625e-10
1.3918087e-10
1.4257702e-10
1.4876272e-10
1.5732022e-10
1.6786333e-10
1.8047731e-10
2.0400283e-10
2.7090022e-10
2.9980392e-10
3.3496332e-10
3.8091352e-10
6.6804491e-11
8.6732112e-11
1.2471453e-10
1.6529161e-10
1.9884698e-10
2.1051841e-10
2.0403324e-10
1.8204948e-10
6.6378651e-10
4.8856368e-10
3.4616888e-10
2.6999681e-10
2.3575874e-10
5.299137e-11
3.6340128e-11
5.3109276e-10
4.5802047e-11
4.7251493e-10
2.6026015e-09
3.1462007e-10
2.0647626e-10
1.1898144e-10
2.5451632e-10
1.9418402e-11
1.034965e-11
5.6773535e-12
3.1721557e-12
2.110925e-12
1.6905211e-12
1.481524e-12
1.3742786e-12
1.3182519e-12
1.2973256e-12
1.2873727e-12
1.2920929e-12
1.3051345e-12
1.3349087e-12
1.3887564e-12
1.4708966e-12
1.5761547e-12
1.7075963e-12
1.8669104e-12
2.0605816e-12
2.2934464e-12
2.5738844e-12
2.9096577e-12
3.3109205e-12
3.787666e-12
4.3495974e-12
5.0015564e-12
5.7428883e-12
6.5830971e-12
7.5427512e-12
8.6374167e-12
6.3930524e-10
6.3618312e-10
6.3291561e-10
6.2950577e-10
6.2595428e-10
6.2226308e-10
6.1843054e-10
6.1445713e-10
6.103405e-10
6.060826e-10
6.0168154e-10
5.971412e-10
5.9245742e-10
5.8763377e-10
5.8266217e-10
5.7754739e-10
5.7227888e-10
5.6686413e-10
5.612876e-10
5.5555919e-10
5.4965628e-10
5.4359206e-10
5.373352e-10
5.3090436e-10
5.2425582e-10
5.1741668e-10
5.1032358e-10
5.0301735e-10
4.9541086e-10
4.8756277e-10
4.7935132e-10
4.7085892e-10
4.6191657e-10
4.5263976e-10
4.4279926e-10
4.3255531e-10
4.2160737e-10
4.1017072e-10
3.978696e-10
3.8497419e-10
3.7105691e-10
3.564202e-10
3.4065947e-10
3.2407675e-10
3.0548692e-10
2.876824e-10
2.820697e-10
2.8283522e-10
2.8660604e-10
2.9079727e-10
2.9493721e-10
2.9865984e-10
3.0166778e-10
3.0404499e-10
3.056039e-10
3.0656152e-10
3.0683926e-10
3.0668805e-10
3.0616836e-10
3.0565079e-10
3.0577654e-10
3.0676836e-10
3.083316e-10
3.1036254e-10
3.127602e-10
3.1548304e-10
3.1846032e-10
3.2162259e-10
3.2486806e-10
3.2808378e-10
3.3111015e-10
3.3361164e-10
3.3472545e-10
3.3415501e-10
3.32421e-10
3.2981374e-10
3.2654074e-10
3.0385245e-10
1.6077123e-09
1.3779358e-09
1.2756923e-09
1.2417352e-09
1.2378222e-09
1.2524454e-09
1.2848594e-09
1.342511e-09
1.4203589e-09
1.5151708e-09
1.6264455e-09
1.8520658e-09
2.4728047e-09
2.7282923e-09
3.0291941e-09
3.4313968e-09
4.6417659e-10
5.9585033e-10
8.647447e-10
1.1535408e-09
1.3813583e-09
1.4713965e-09
1.4404763e-09
1.3131976e-09
5.7143385e-09
4.2788564e-09
3.0331971e-09
2.3988344e-09
2.0865172e-09
4.2946409e-10
1.5124556e-10
2.5310337e-09
1.9035858e-10
2.2474961e-09
1.327053e-08
1.5180354e-09
9.9324218e-10
5.7557703e-10
1.3202521e-09
9.0383385e-11
4.8196399e-11
2.6165516e-11
1.4622778e-11
9.6589463e-12
7.7774285e-12
6.8071045e-12
6.3479353e-12
6.0897237e-12
6.0171504e-12
5.9792841e-12
6.0203901e-12
6.0919407e-12
6.2462595e-12
6.5064062e-12
6.9016414e-12
7.4023252e-12
8.0273105e-12
8.781152e-12
9.6969539e-12
1.079538e-11
1.2117289e-11
1.369785e-11
1.5585648e-11
1.7826813e-11
2.0468009e-11
2.3532505e-11
2.70207e-11
3.0977003e-11
3.5498644e-11
4.066059e-11
3.0768573e-09
3.0619105e-09
3.0462616e-09
3.0299251e-09
3.0129042e-09
2.9952085e-09
2.9768299e-09
2.9577707e-09
2.9380199e-09
2.9175864e-09
2.8964614e-09
2.8746634e-09
2.8521726e-09
2.8290059e-09
2.8051247e-09
2.7805519e-09
2.7552367e-09
2.7292148e-09
2.7024123e-09
2.6748758e-09
2.6464974e-09
2.6173397e-09
2.5872528e-09
2.5563256e-09
2.5243486e-09
2.491451e-09
2.4573295e-09
2.4221788e-09
2.3855811e-09
2.3478171e-09
2.3083026e-09
2.267432e-09
2.2243943e-09
2.1797425e-09
2.1323762e-09
2.0830633e-09
2.0303606e-09
1.9753002e-09
1.9160777e-09
1.8539883e-09
1.7869793e-09
1.7164996e-09
1.6406089e-09
1.5607497e-09
1.4712919e-09
1.3857166e-09
1.3588017e-09
1.3624985e-09
1.3806842e-09
1.4009076e-09
1.4208857e-09
1.4388629e-09
1.4533976e-09
1.4648997e-09
1.4724588e-09
1.4771259e-09
1.4785143e-09
1.4778398e-09
1.4753932e-09
1.4729651e-09
1.4736259e-09
1.4784285e-09
1.4859511e-09
1.4957125e-09
1.5072192e-09
1.5202757e-09
1.5345327e-09
1.5496484e-09
1.5651317e-09
1.580435e-09
1.5947929e-09
1.6065688e-09
1.611641e-09
1.6086285e-09
1.6000216e-09
1.5872162e-09
1.5711798e-09
1.4494001e-09
8.2047051e-09
7.1232708e-09
6.6218279e-09
6.4734102e-09
6.4827832e-09
6.5918258e-09
6.7982882e-09
7.1430548e-09
7.5946362e-09
8.132862e-09
8.7497761e-09
1.0063731e-08
1.3547499e-08
1.4951647e-08
1.6540013e-08
1.873727e-08
2.224824e-09
2.7964773e-09
4.049749e-09
5.399115e-09
6.4556042e-09
6.878275e-09
6.7402869e-09
6.1535105e-09
2.8833101e-08
2.1868665e-08
1.5510829e-08
1.2298116e-08
1.0688261e-08
2.0786085e-09
5.0991889e-10
8.787077e-09
6.4177868e-10
7.7952184e-09
4.5677162e-08
5.360477e-09
3.4908047e-09
2.0340656e-09
4.6324996e-09
3.1293613e-10
1.6782813e-10
9.0955344e-11
5.083004e-11
3.350303e-11
2.6985271e-11
2.360587e-11
2.2031492e-11
2.1133911e-11
2.0896851e-11
2.0770895e-11
2.0926091e-11
2.1181709e-11
2.1727064e-11
2.263502e-11
2.4014079e-11
2.5758288e-11
2.793572e-11
3.0559943e-11
3.3747684e-11
3.7569467e-11
4.2168261e-11
4.7665538e-11
5.4230821e-11
6.2024122e-11
7.1208783e-11
8.186713e-11
9.4003729e-11
1.0777191e-10
1.2350955e-10
1.4147936e-10
1.0813918e-08
1.0761488e-08
1.0706586e-08
1.0649265e-08
1.0589537e-08
1.0527433e-08
1.0462927e-08
1.0396026e-08
1.0326692e-08
1.0254955e-08
1.0180785e-08
1.0104247e-08
1.0025271e-08
9.9439157e-09
9.8600471e-09
9.773744e-09
9.6848296e-09
9.5934284e-09
9.4992803e-09
9.40255e-09
9.3028577e-09
9.2004233e-09
9.0947207e-09
8.9860614e-09
8.8737101e-09
8.7581205e-09
8.6382265e-09
8.5147121e-09
8.3861099e-09
8.2534055e-09
8.1145461e-09
7.9709182e-09
7.8196708e-09
7.662748e-09
7.4962822e-09
7.3229725e-09
7.1377463e-09
6.9442314e-09
6.7360851e-09
6.5178608e-09
6.2823427e-09
6.0346237e-09
5.7678831e-09
5.4871788e-09
5.1729571e-09
4.8727473e-09
4.7785579e-09
4.7915875e-09
4.8556105e-09
4.9268137e-09
4.9971628e-09
5.0604885e-09
5.1117137e-09
5.1522739e-09
5.1789697e-09
5.1955026e-09
5.2005045e-09
5.198262e-09
5.1898048e-09
5.1814456e-09
5.1839096e-09
5.2008573e-09
5.2273176e-09
5.2616266e-09
5.3020405e-09
5.3478748e-09
5.397889e-09
5.4508773e-09
5.5051188e-09
5.5586705e-09
5.608833e-09
5.6497928e-09
5.6671605e-09
5.6562316e-09
5.6257161e-09
5.580494e-09
5.5239425e-09
5.046035e-09
2.8262715e-08
2.4964383e-08
2.3338504e-08
2.2948956e-08
2.3125712e-08
2.3671096e-08
2.4584213e-08
2.6018801e-08
2.7841881e-08
2.9967395e-08
3.2339375e-08
3.729515e-08
4.9396329e-08
5.4490894e-08
6.0127688e-08
6.8520788e-08
7.98817e-09
9.7650033e-09
1.4073657e-08
1.8727524e-08
2.2357087e-08
2.3806703e-08
2.3326465e-08
2.1279302e-08
9.8157605e-08
7.5429654e-08
5.3560201e-08
4.2535483e-08
3.6962286e-08
7.3597489e-09
1.5215082e-09
2.4728265e-08
1.9109745e-09
2.1913347e-08
1.1527557e-07
1.5388532e-08
9.9698986e-09
5.8428074e-09
1.1872564e-08
8.8468144e-10
4.7775251e-10
2.588514e-10
1.4464951e-10
9.5219637e-11
7.6650328e-11
6.70231e-11
6.2555546e-11
6.0001032e-11
5.9336681e-11
5.8983532e-11
5.9433382e-11
6.0164359e-11
6.1716971e-11
6.4292444e-11
6.8205579e-11
7.315497e-11
7.9334787e-11
8.6781518e-11
9.5827377e-11
1.0667142e-10
1.1971985e-10
1.3531666e-10
1.5394333e-10
1.760539e-10
2.0211365e-10
2.3236018e-10
2.6681141e-10
3.0589879e-10
3.5057925e-10
4.0160187e-10
3.088863e-08
3.0739187e-08
3.0582678e-08
3.0419252e-08
3.0248938e-08
3.0071832e-08
2.9887856e-08
2.9697029e-08
2.9499241e-08
2.9294583e-08
2.9082966e-08
2.8864573e-08
2.8639209e-08
2.8407039e-08
2.8167681e-08
2.7921359e-08
2.7667569e-08
2.7406665e-08
2.7137907e-08
2.6861763e-08
2.657715e-08
2.6284695e-08
2.5982896e-08
2.5672643e-08
2.5351835e-08
2.5021769e-08
2.4679399e-08
2.4326681e-08
2.395942e-08
2.3580436e-08
2.3183861e-08
2.277366e-08
2.2341685e-08
2.1893496e-08
2.1418037e-08
2.0923028e-08
2.0393969e-08
1.9841235e-08
1.9246696e-08
1.8623372e-08
1.7950637e-08
1.7243054e-08
1.6481123e-08
1.5679257e-08
1.4782263e-08
1.3926294e-08
1.3658405e-08
1.3695705e-08
1.3878871e-08
1.408258e-08
1.4283886e-08
1.4465152e-08
1.461184e-08
1.4728067e-08
1.4804664e-08
1.4852222e-08
1.486683e-08
1.4860764e-08
1.483698e-08
1.4813578e-08
1.4820981e-08
1.4869559e-08
1.4945205e-08
1.5043201e-08
1.5158591e-08
1.5289352e-08
1.5431951e-08
1.5582981e-08
1.5737452e-08
1.5889806e-08
1.6032307e-08
1.6148194e-08
1.6196608e-08
1.6164543e-08
1.6076756e-08
1.5947064e-08
1.5785514e-08
1.4270539e-08
7.1417923e-08
6.4107499e-08
6.0210296e-08
5.946829e-08
6.020092e-08
6.1911076e-08
6.4608782e-08
6.8711324e-08
7.3843581e-08
7.9763366e-08
8.6243245e-08
9.8343823e-08
1.2397781e-07
1.3635117e-07
1.5022041e-07
1.7305778e-07
2.3514025e-08
2.7847462e-08
3.9866505e-08
5.2902444e-08
6.3023038e-08
6.7038436e-08
6.5659031e-08
5.9838539e-08
2.4493177e-07
1.8996132e-07
1.3514312e-07
1.0756273e-07
9.3525412e-08
2.119206e-08
4.1903393e-09
6.0024833e-08
5.2400924e-09
5.3129011e-08
2.3031167e-07
3.8130762e-08
2.459433e-08
1.4495365e-08
2.3901614e-08
2.1659185e-09
1.1780208e-09
6.3830255e-10
3.56666e-10
2.3452773e-10
1.8863734e-10
1.6487768e-10
1.5386561e-10
1.4756619e-10
1.4593489e-10
1.4507114e-10
1.4618543e-10
1.479874e-10
1.5180309e-10
1.5812154e-10
1.6772649e-10
1.7987989e-10
1.9505771e-10
2.1334702e-10
2.3556445e-10
2.6219756e-10
2.9424458e-10
3.3254971e-10
3.7829591e-10
4.3259912e-10
4.9660587e-10
5.7091e-10
6.5556598e-10
7.5162371e-10
8.6142853e-10
9.8682893e-10
7.6233965e-08
7.586633e-08
7.5481221e-08
7.5079004e-08
7.4659756e-08
7.4223708e-08
7.3770667e-08
7.3300686e-08
7.2813486e-08
7.2309294e-08
7.1787889e-08
7.1249726e-08
7.0694317e-08
7.0122077e-08
6.9532057e-08
6.8924814e-08
6.8299101e-08
6.7655796e-08
6.699307e-08
6.6312079e-08
6.561015e-08
6.4888834e-08
6.4144419e-08
6.3379108e-08
6.2587711e-08
6.1773435e-08
6.0928757e-08
6.0058512e-08
5.9152339e-08
5.8217209e-08
5.7238626e-08
5.6226395e-08
5.5160385e-08
5.4054343e-08
5.2880958e-08
5.1659314e-08
5.035359e-08
4.8989433e-08
4.7522051e-08
4.5983632e-08
4.4323214e-08
4.2576792e-08
4.0696181e-08
3.8716842e-08
3.6504179e-08
3.4395081e-08
3.3736639e-08
3.3828845e-08
3.4281611e-08
3.4785142e-08
3.5282872e-08
3.5731188e-08
3.6094124e-08
3.6381902e-08
3.6571819e-08
3.6690034e-08
3.6726871e-08
3.6712747e-08
3.6654945e-08
3.6598311e-08
3.6617405e-08
3.6737698e-08
3.6924532e-08
3.7166281e-08
3.7450803e-08
3.7773034e-08
3.8124218e-08
3.8495968e-08
3.8875784e-08
3.9249898e-08
3.9599195e-08
3.9882007e-08
3.9998096e-08
3.9916349e-08
3.9697605e-08
3.9375772e-08
3.8977235e-08
3.4879746e-08
1.4258926e-07
1.2919262e-07
1.2153717e-07
1.2015789e-07
1.2173997e-07
1.2528657e-07
1.3082057e-07
1.3919816e-07
1.4966751e-07
1.6175067e-07
1.7486071e-07
1.9542411e-07
2.319712e-07
2.5398513e-07
2.7959415e-07
3.2555288e-07
5.9892953e-08
6.8719939e-08
9.7544904e-08
1.289553e-07
1.5319052e-07
1.6269278e-07
1.5923678e-07
1.4501245e-07
4.8441142e-07
3.7649699e-07
2.6856859e-07
2.1440018e-07
1.8670154e-07
5.268135e-08
1.0856863e-08
1.3068795e-07
1.3495581e-08
1.1555146e-07
3.9400454e-07
8.4587488e-08
5.4413223e-08
3.2241136e-08
4.0925164e-08
4.7677341e-09
2.6107068e-09
1.4148021e-09
7.9048953e-10
5.1923336e-10
4.172591e-10
3.6455353e-10
3.4013843e-10
3.2617518e-10
3.2256351e-10
3.2066134e-10
3.2313316e-10
3.2712023e-10
3.355394e-10
3.4946333e-10
3.7064179e-10
3.9745372e-10
4.3094452e-10
4.7130227e-10
5.2032965e-10
5.7910042e-10
6.4981755e-10
7.3434297e-10
8.3528772e-10
9.5511619e-10
1.096367e-09
1.2603739e-09
1.4472785e-09
1.6593755e-09
1.9018285e-09
2.1787342e-09
1.6885042e-07
1.6804017e-07
1.6719108e-07
1.6630398e-07
1.6537903e-07
1.6441674e-07
1.634167e-07
1.62379e-07
1.6130304e-07
1.6018932e-07
1.5903734e-07
1.5784811e-07
1.5662056e-07
1.5535559e-07
1.5405112e-07
1.5270837e-07
1.5132458e-07
1.4990171e-07
1.4843568e-07
1.4692909e-07
1.4537599e-07
1.4377984e-07
1.421324e-07
1.4043857e-07
1.3868684e-07
1.3688433e-07
1.3501436e-07
1.3308767e-07
1.3108128e-07
1.2901066e-07
1.2684368e-07
1.246021e-07
1.2224127e-07
1.1979171e-07
1.1719287e-07
1.1448708e-07
1.1159493e-07
1.0857332e-07
1.0532292e-07
1.0191516e-07
9.8237022e-08
9.436837e-08
9.0202317e-08
8.5817072e-08
8.0918079e-08
7.625318e-08
7.4800402e-08
7.5004806e-08
7.600917e-08
7.7126167e-08
7.8230646e-08
7.9225788e-08
8.003173e-08
8.067124e-08
8.1093881e-08
8.135765e-08
8.1441006e-08
8.1411547e-08
8.1285453e-08
8.1162397e-08
8.1206374e-08
8.1473635e-08
8.1887537e-08
8.2422529e-08
8.3051663e-08
8.3763857e-08
8.4539428e-08
8.5359536e-08
8.6196565e-08
8.7019779e-08
8.7786532e-08
8.8404003e-08
8.8651442e-08
8.8462589e-08
8.797173e-08
8.7253e-08
8.6369176e-08
7.6587341e-08
2.4302565e-07
2.2057608e-07
2.0727686e-07
2.0450923e-07
2.0671816e-07
2.1219076e-07
2.2094096e-07
2.3440617e-07
2.5138921e-07
2.7114906e-07
2.9258883e-07
3.2063534e-07
3.6261709e-07
3.9539981e-07
4.3512126e-07
5.1041147e-07
1.3625192e-07
1.5214256e-07
2.1378458e-07
2.8125235e-07
3.3287354e-07
3.5273125e-07
3.4487533e-07
3.139402e-07
8.2123346e-07
6.3560878e-07
4.5492842e-07
3.6450218e-07
3.1816703e-07
1.1722047e-07
2.6692376e-08
2.6193954e-07
3.2950318e-08
2.3145052e-07
6.1483493e-07
1.7200306e-07
1.1065586e-07
6.5884425e-08
6.371112e-08
9.6754879e-09
5.3297302e-09
2.888794e-09
1.613907e-09
1.0589426e-09
8.5017121e-10
7.4246892e-10
6.9259369e-10
6.6408264e-10
6.567105e-10
6.5285053e-10
6.578964e-10
6.6601926e-10
6.8312398e-10
7.1137961e-10
7.5438304e-10
8.0885688e-10
8.7691328e-10
9.5892729e-10
1.058563e-09
1.1779983e-09
1.3217097e-09
1.4934779e-09
1.6986104e-09
1.9421185e-09
2.2291774e-09
2.56255e-09
2.9425668e-09
3.3738378e-09
3.8668348e-09
4.4299178e-09
3.4410707e-07
3.4246775e-07
3.4074891e-07
3.3895223e-07
3.3707804e-07
3.3512738e-07
3.3309938e-07
3.3099428e-07
3.288108e-07
3.2654997e-07
3.2421079e-07
3.217953e-07
3.1930132e-07
3.167307e-07
3.1407917e-07
3.1134925e-07
3.0853533e-07
3.0564136e-07
3.0265909e-07
2.9959376e-07
2.964333e-07
2.9318473e-07
2.8983129e-07
2.8638296e-07
2.8281629e-07
2.791458e-07
2.753375e-07
2.7141329e-07
2.6732632e-07
2.6310817e-07
2.586933e-07
2.5412612e-07
2.4931559e-07
2.4432401e-07
2.3902781e-07
2.335135e-07
2.2761897e-07
2.2146047e-07
2.1483527e-07
2.0788925e-07
2.0039172e-07
1.9250579e-07
1.8401323e-07
1.7507251e-07
1.650905e-07
1.5559414e-07
1.5264376e-07
1.5306032e-07
1.5511033e-07
1.5739031e-07
1.5964546e-07
1.6167818e-07
1.633252e-07
1.6463298e-07
1.6549845e-07
1.6604003e-07
1.6621361e-07
1.6615723e-07
1.6590405e-07
1.6565773e-07
1.657503e-07
1.6629628e-07
1.671392e-07
1.6822772e-07
1.6950668e-07
1.7095337e-07
1.7252722e-07
1.7418928e-07
1.7588333e-07
1.7754633e-07
1.7909058e-07
1.8032547e-07
1.8080433e-07
1.8039795e-07
1.7937905e-07
1.7789632e-07
1.7608586e-07
1.5498857e-07
3.7709597e-07
3.4097516e-07
3.1956128e-07
3.1413123e-07
3.1624483e-07
3.2323161e-07
3.3505587e-07
3.538575e-07
3.7795927e-07
4.0634901e-07
4.3733694e-07
4.7217378e-07
5.1712651e-07
5.6205976e-07
6.184375e-07
7.2856579e-07
2.8216691e-07
3.0935862e-07
4.2981292e-07
5.6204844e-07
6.621211e-07
6.9951625e-07
6.8286465e-07
6.2154291e-07
1.2697302e-06
9.7496848e-07
7.0061682e-07
5.6372146e-07
4.9361764e-07
2.388886e-07
6.2507576e-08
4.9200244e-07
7.6591507e-08
4.3475716e-07
9.1205324e-07
3.2577625e-07
2.1033396e-07
1.2578743e-07
9.4283487e-08
1.8420367e-08
1.0195874e-08
5.527251e-09
3.0876455e-09
2.0236552e-09
1.623108e-09
1.4168712e-09
1.321395e-09
1.2668454e-09
1.2527436e-09
1.2454057e-09
1.2550568e-09
1.2705625e-09
1.3031186e-09
1.3568342e-09
1.4386388e-09
1.5423252e-09
1.671889e-09
1.828031e-09
2.0177281e-09
2.2451161e-09
2.5187172e-09
2.8457224e-09
3.2362358e-09
3.6998019e-09
4.2463036e-09
4.8811026e-09
5.6049174e-09
6.4264101e-09
7.3654683e-09
8.438079e-09
6.5642176e-07
6.5332648e-07
6.5007847e-07
6.4668097e-07
6.4313461e-07
6.3944136e-07
6.3559957e-07
6.3160965e-07
6.2746918e-07
6.2318013e-07
6.1874055e-07
6.1415436e-07
6.0941739e-07
6.0453317e-07
5.994936e-07
5.9430343e-07
5.8895203e-07
5.8344689e-07
5.7777234e-07
5.7193834e-07
5.6592191e-07
5.5973643e-07
5.5334998e-07
5.4678156e-07
5.399865e-07
5.3299252e-07
5.2573475e-07
5.1825504e-07
5.1046396e-07
5.0242186e-07
4.940036e-07
4.852941e-07
4.7611945e-07
4.665988e-07
4.564961e-07
4.4597676e-07
4.3473108e-07
4.2298133e-07
4.1034017e-07
3.9708651e-07
3.8277953e-07
3.6773104e-07
3.5152384e-07
3.3445792e-07
3.1541525e-07
2.9731306e-07
2.9170196e-07
2.9249591e-07
2.9641261e-07
3.00769e-07
3.0507962e-07
3.0896675e-07
3.1211783e-07
3.1462165e-07
3.162808e-07
3.173217e-07
3.1765991e-07
3.1755912e-07
3.1708288e-07
3.1662002e-07
3.1680109e-07
3.1784372e-07
3.1944883e-07
3.2151937e-07
3.239502e-07
3.2669663e-07
3.2968067e-07
3.3282735e-07
3.3602862e-07
3.3916351e-07
3.4206306e-07
3.4436121e-07
3.4521255e-07
3.443822e-07
3.423887e-07
3.3951179e-07
3.360195e-07
2.9420613e-07
5.562804e-07
4.993544e-07
4.6640682e-07
4.5645944e-07
4.573599e-07
4.6517377e-07
4.7976012e-07
5.0410696e-07
5.3599888e-07
5.7413069e-07
6.1615099e-07
6.5840021e-07
7.067256e-07
7.6618505e-07
8.4295296e-07
9.9519515e-07
5.3857925e-07
5.8688517e-07
8.057662e-07
1.0461133e-06
1.2254999e-06
1.2897569e-06
1.2562435e-06
1.1434557e-06
1.8633445e-06
1.4174041e-06
1.0232897e-06
8.2724853e-07
7.2718327e-07
4.5275184e-07
1.3963406e-07
8.7672198e-07
1.697959e-07
7.7551731e-07
1.3170515e-06
5.8130895e-07
3.7809254e-07
2.2707467e-07
1.3613346e-07
3.3315278e-08
1.8504417e-08
1.0032917e-08
5.6039497e-09
3.6686243e-09
2.9395393e-09
2.564887e-09
2.391504e-09
2.2924978e-09
2.2669143e-09
2.2536886e-09
2.2712056e-09
2.299287e-09
2.3580637e-09
2.4549164e-09
2.6025138e-09
2.7897072e-09
3.0236586e-09
3.3056114e-09
3.6481646e-09
4.0587637e-09
4.5527949e-09
5.1432257e-09
5.8482952e-09
6.6852391e-09
7.6719588e-09
8.8183257e-09
1.0125795e-08
1.160979e-08
1.330612e-08
1.5243765e-08
1.1865402e-06
1.1810232e-06
1.1752276e-06
1.1691594e-06
1.1628197e-06
1.1562121e-06
1.1493336e-06
1.1421848e-06
1.1347614e-06
1.1270669e-06
1.1190979e-06
1.1108613e-06
1.1023496e-06
1.0935693e-06
1.0845057e-06
1.0751674e-06
1.0655352e-06
1.0556227e-06
1.0454016e-06
1.0348899e-06
1.0240461e-06
1.0128944e-06
1.0013772e-06
9.8952887e-07
9.7726865e-07
9.6464678e-07
9.5154594e-07
9.3804189e-07
9.2397292e-07
9.0944833e-07
8.9424167e-07
8.7850682e-07
8.61929e-07
8.4472419e-07
8.2646498e-07
8.0745119e-07
7.8712199e-07
7.6588028e-07
7.4302449e-07
7.190601e-07
6.9318855e-07
6.6597488e-07
6.3666296e-07
6.0578955e-07
5.7135728e-07
5.3864553e-07
5.2852819e-07
5.2996079e-07
5.3705169e-07
5.449396e-07
5.5274809e-07
5.5979263e-07
5.65506e-07
5.7004908e-07
5.7306335e-07
5.7495919e-07
5.7558299e-07
5.7541175e-07
5.7456107e-07
5.7373305e-07
5.7406608e-07
5.7594903e-07
5.7884109e-07
5.825673e-07
5.8693698e-07
5.918672e-07
5.9721603e-07
6.0284597e-07
6.0855929e-07
6.1413594e-07
6.1926807e-07
6.2328946e-07
6.246858e-07
6.2305473e-07
6.1933025e-07
6.1400961e-07
6.0757457e-07
5.3042406e-07
8.0059259e-07
7.1185486e-07
6.6238965e-07
6.4519363e-07
6.4322547e-07
6.5086783e-07
6.6779959e-07
6.9805428e-07
7.3877183e-07
7.8829877e-07
8.4352747e-07
8.9496594e-07
9.484993e-07
1.0261195e-06
1.1287759e-06
1.333542e-06
9.5654152e-07
1.0502273e-06
1.42501e-06
1.8349372e-06
2.1357556e-06
2.2372669e-06
2.172539e-06
1.9772828e-06
2.6553284e-06
2.0010071e-06
1.4522421e-06
1.1801717e-06
1.0421463e-06
8.0648721e-07
2.9766881e-07
1.4944439e-06
3.5921904e-07
1.3249638e-06
1.8749564e-06
9.8559133e-07
6.4815113e-07
3.9099841e-07
1.945042e-07
5.7775317e-08
3.215481e-08
1.7436225e-08
9.7377102e-09
6.3672073e-09
5.0965843e-09
4.4449785e-09
4.1435527e-09
3.9715279e-09
3.9271123e-09
3.9043084e-09
3.9347638e-09
3.9834616e-09
4.0850479e-09
4.2522035e-09
4.5071119e-09
4.8306086e-09
5.2349713e-09
5.7223115e-09
6.3144036e-09
7.0240709e-09
7.8778974e-09
8.8982532e-09
1.0116644e-08
1.1562851e-08
1.3267901e-08
1.5249202e-08
1.7509547e-08
2.0075159e-08
2.300774e-08
2.6357562e-08
2.0504985e-06
2.0411403e-06
2.0312958e-06
2.0209752e-06
2.0101802e-06
1.9989169e-06
1.98718e-06
1.9749709e-06
1.9622818e-06
1.9491187e-06
1.9354757e-06
1.9213649e-06
1.9067733e-06
1.8917118e-06
1.8761555e-06
1.860119e-06
1.8435693e-06
1.8265299e-06
1.8089519e-06
1.7908664e-06
1.7722021e-06
1.7530006e-06
1.7331625e-06
1.7127473e-06
1.6916155e-06
1.6698541e-06
1.6472603e-06
1.6239652e-06
1.5996892e-06
1.5746216e-06
1.5483708e-06
1.5212032e-06
1.4925742e-06
1.462858e-06
1.4313147e-06
1.3984638e-06
1.3633344e-06
1.3266245e-06
1.2871191e-06
1.2456941e-06
1.2009658e-06
1.1539132e-06
1.1032255e-06
1.0498178e-06
9.902777e-07
9.3373608e-07
9.1628419e-07
9.1875325e-07
9.3102674e-07
9.4468217e-07
9.5820667e-07
9.7041375e-07
9.8031926e-07
9.8820115e-07
9.9343708e-07
9.9673722e-07
9.9783446e-07
9.9755463e-07
9.960963e-07
9.9467129e-07
9.9525232e-07
9.9849488e-07
1.0034657e-06
1.0098626e-06
1.0173541e-06
1.0257936e-06
1.0349326e-06
1.0445284e-06
1.0542367e-06
1.0636731e-06
1.0723015e-06
1.0789632e-06
1.0810665e-06
1.0779583e-06
1.0712479e-06
1.0617786e-06
1.0503352e-06
9.1644361e-07
1.1405024e-06
1.0031372e-06
9.2970141e-07
9.0109252e-07
8.9365995e-07
8.9952277e-07
9.1808303e-07
9.5469406e-07
1.0056833e-06
1.0689455e-06
1.1404728e-06
1.2038517e-06
1.2652461e-06
1.3661881e-06
1.5025395e-06
1.774379e-06
1.5948979e-06
1.786971e-06
2.3979683e-06
3.0601047e-06
3.5363429e-06
3.6843554e-06
3.5637984e-06
3.241822e-06
3.7192159e-06
2.7792117e-06
2.0288161e-06
1.6580782e-06
1.4717352e-06
1.3607545e-06
6.0537319e-07
2.449864e-06
7.2518352e-07
2.1803104e-06
2.6475776e-06
1.5983727e-06
1.0660492e-06
6.463669e-07
2.7692029e-07
9.6747155e-08
5.3874319e-08
2.921616e-08
1.6313552e-08
1.0653824e-08
8.5188151e-09
7.4262092e-09
6.921039e-09
6.6329049e-09
6.558607e-09
6.5207404e-09
6.5718251e-09
6.6532622e-09
6.8225266e-09
7.1005981e-09
7.5249494e-09
8.06383e-09
8.7374946e-09
9.5494108e-09
1.0535845e-08
1.1718066e-08
1.3140335e-08
1.4839827e-08
1.686898e-08
1.9277363e-08
2.2116791e-08
2.541686e-08
2.9182713e-08
3.3457206e-08
3.8342752e-08
4.3923392e-08
3.4100224e-06
3.3948314e-06
3.3788226e-06
3.3620119e-06
3.344402e-06
3.326003e-06
3.306806e-06
3.2868131e-06
3.2660113e-06
3.2444106e-06
3.222001e-06
3.1988024e-06
3.1747933e-06
3.149992e-06
3.1243568e-06
3.0979123e-06
3.0706038e-06
3.0424699e-06
3.01343e-06
2.9835357e-06
2.9526685e-06
2.9208977e-06
2.8880583e-06
2.8542492e-06
2.8192387e-06
2.7831716e-06
2.7457109e-06
2.7070748e-06
2.6667983e-06
2.6251967e-06
2.581618e-06
2.5365065e-06
2.4889553e-06
2.439588e-06
2.3871726e-06
2.3325747e-06
2.2741766e-06
2.213142e-06
2.1474454e-06
2.0785468e-06
2.0041388e-06
1.925853e-06
1.8415009e-06
1.7525777e-06
1.6534711e-06
1.5593718e-06
1.530381e-06
1.5344723e-06
1.5549158e-06
1.5776667e-06
1.6002117e-06
1.6205697e-06
1.6370977e-06
1.6502573e-06
1.6590084e-06
1.664533e-06
1.6663846e-06
1.6659378e-06
1.6635173e-06
1.6611422e-06
1.6621063e-06
1.6674609e-06
1.6756587e-06
1.6861967e-06
1.6985197e-06
1.7123778e-06
1.7273475e-06
1.7430172e-06
1.7588125e-06
1.7740839e-06
1.7879318e-06
1.7984201e-06
1.8012812e-06
1.795507e-06
1.7837695e-06
1.7674414e-06
1.7476642e-06
1.5272989e-06
1.620188e-06
1.409267e-06
1.3007595e-06
1.2543461e-06
1.2372714e-06
1.2386098e-06
1.257375e-06
1.3006388e-06
1.3636793e-06
1.4437751e-06
1.5357938e-06
1.614889e-06
1.6875733e-06
1.8189524e-06
1.9998441e-06
2.3585317e-06
2.5197977e-06
2.9089034e-06
3.8651163e-06
4.8857038e-06
5.6029961e-06
5.802322e-06
5.5854907e-06
5.0746714e-06
5.1509168e-06
3.8227569e-06
2.8082319e-06
2.3088289e-06
2.0610035e-06
2.1880326e-06
1.1734392e-06
3.8748352e-06
1.3961926e-06
3.4676755e-06
3.717152e-06
2.4928039e-06
1.6897863e-06
1.0308338e-06
3.9404321e-07
1.5727544e-07
8.751082e-08
4.7457929e-08
2.6493049e-08
1.7279603e-08
1.3801936e-08
1.202603e-08
1.1205433e-08
1.073768e-08
1.061729e-08
1.0556419e-08
1.0639549e-08
1.0771603e-08
1.1044978e-08
1.1493288e-08
1.2177921e-08
1.3047901e-08
1.4135577e-08