/*--------------------------------*- C++ -*----------------------------------*\
| =========                 |                                                 |
| \\      /  F ield         | OpenFOAM: The Open Source CFD Toolbox           |
|  \\    /   O peration     | Version:  2.4.0                                 |
|   \\  /    A nd           | Web:      www.OpenFOAM.org                      |
|    \\/     M anipulation  |                                                 |
\*---------------------------------------------------------------------------*/
FoamFile
{
    version     2.0;
    format      ascii;
    class       volScalarField;
    location    "330";
    object      omega;
}
// * * * * * * * * * * * * * * * * * * * * * * * * * * * * * * * * * * * * * //

dimensions      [0 0 -1 0 0 0 0];

internalField   nonuniform List<scalar> 
19475
(
288636.63
288686.54
288700.32
288833.65
289515.6
291432.02
295479.08
302673.01
314010.37
329813.04
346787.82
362441.63
375829.98
386411.76
393919.79
398343.7
399991.89
399060.36
395721.33
390174.45
382632.29
373308
362413.46
350675.33
339521.98
329123.31
319421.78
310364.21
301901.89
293992.53
286594.56
279672.29
273192.3
267123.9
261439.18
256109.32
250877.53
245350.68
239525.68
233441.11
129783.85
129783.85
129783.84
129783.85
129783.85
129783.84
129783.85
129783.85
129783.85
129783.85
129783.85
129783.85
129783.85
129783.84
129783.85
129783.85
129783.85
129783.85
129783.85
129783.85
129783.85
129783.85
129783.85
129783.85
129783.85
129783.85
129783.85
129783.85
129783.85
129783.85
129783.85
129783.85
129783.84
129783.85
129783.85
129783.84
129783.85
129783.85
129783.85
129783.85
129783.85
129783.84
129783.85
129783.85
129783.84
129657.28
129512.01
129895.29
130811.3
132247.51
134192.34
136634.64
139564.65
142973.98
146855.32
151204.67
156018.82
161297.58
167043.87
173262.26
179902.7
186708.68
193567.05
200429.57
207253.32
214004.05
220644.49
227134.65
233439.26
239524.1
245352.66
250877.67
256108.08
261440.19
267124.37
273191.43
279670.54
286594.56
293991.4
301901.42
310366.51
319421.34
329122.77
339524.25
350675.48
362412.53
373310.22
382630.09
390168.82
395719.59
399058.71
399989.89
398342.36
393921.49
386411.4
375828.68
362441.02
346789.97
329814.86
314010.09
302672.88
295478.99
291431.81
289515.62
288834.57
288701.21
288686.52
288636.62
56866.777
48872.523
56871.638
48896.181
40304.726
49287.822
49991.626
51201.287
43628.953
53537.206
56295.072
58837.591
61013.17
62733.517
63955.01
64675.649
64945.532
64796.448
64256.428
63357.814
62135.146
60623.001
58855.541
56950.029
55138.696
53449.83
51874.238
50403.235
49028.968
47744.464
46543.005
45418.687
44366.153
43380.395
42456.932
41591.24
40741.93
39844.968
38899.631
37912.209
21961.559
21961.558
21961.558
21961.558
21961.557
21961.557
21961.557
21961.556
21961.556
21961.556
21961.556
21961.555
21961.556
21961.555
21961.555
21961.555
21961.555
21961.555
21961.555
21961.555
21961.555
21961.555
21961.555
21961.555
21961.555
21961.555
21961.555
21961.555
21961.555
21961.556
21961.556
21961.557
21961.557
21961.558
21961.558
21961.559
21961.56
21961.561
21961.562
21961.563
21961.565
21961.566
21961.568
21961.572
21962.075
21942.384
21919.049
21983.956
22138.989
22382.099
22711.309
23124.742
23620.734
24197.884
24854.9
25591.132
26406.054
27299.589
28272.249
29324.772
30448.542
31600.086
32760.337
33921.296
35075.781
36217.753
37341.019
38438.829
39505.251
40534.391
41519.973
42454.403
43339.366
44241.766
45203.789
46230.698
47327.749
48496.107
40907.374
41976.211
43131.44
44366.887
45690.129
47108.375
48628.168
50226.644
51709.533
52977.298
54001.498
54539.528
54438.628
54508.18
54269.327
53696.402
62658.112
61009.075
58837.533
56296.133
53540.801
50978.264
49141.963
47977.995
40587.437
40282.506
40188.877
40173.428
40173.239
48824.416
23839.005
16195.552
23833.583
16203.871
10554.225
16269.461
16529.9
16913.152
11345.254
17966.043
18879.822
19732.91
20463.233
21041.028
21451.488
21693.934
21785.112
21735.727
21555.173
21254.282
20844.646
20337.887
19745.352
19106.231
18498.481
17931.791
17403.093
16909.497
16448.357
16017.337
15614.193
15236.948
14883.79
14553.043
14243.198
13952.778
13667.927
13367.133
13050.117
12718.969
7261.9046
7261.9034
7261.9024
7261.9015
7261.9006
7261.8995
7261.8988
7261.898
7261.8971
7261.8964
7261.8958
7261.895
7261.8945
7261.8938
7261.8934
7261.8929
7261.8925
7261.892
7261.8918
7261.8915
7261.8912
7261.8911
7261.8908
7261.8908
7261.8908
7261.8908
7261.891
7261.8911
7261.8914
7261.8919
7261.8922
7261.8929
7261.8935
7261.8945
7261.8955
7261.8967
7261.8983
7261.9001
7261.9021
7261.9046
7261.9074
7261.9109
7261.9144
7261.9202
7262.217
7256.155
7248.7561
7270.2324
7321.5046
7401.9171
7510.8077
7647.5573
7811.6178
8002.5246
8219.8476
8463.3711
8732.9163
9028.4645
9350.176
9698.2933
10069.921
10450.681
10834.291
11218.113
11599.803
11977.347
12348.687
12711.602
13064.128
13404.301
13730.079
14038.971
14331.55
14629.984
14948.184
15287.822
15650.918
16056.274
10702.878
10936.579
11216.458
11515.4
11835.037
12177.087
12542.988
12926.934
13282.28
13585.832
13830.84
13762.666
12648.633
12562.355
12478.124
12364.952
20866.986
20455.795
19733.35
18881.701
17958.62
17100.879
16486.503
16099.978
10651.462
10524.818
10500.531
10497.928
10499.83
16116.841
14185.833
7505.3439
14175.255
7510.9349
3657.6039
7471.2224
7620.5181
7778.9984
3875.5756
8356.7929
8767.1525
9163.3063
9502.6661
9771.3289
9962.2548
10075.151
10117.755
10095.076
10011.451
9871.9383
9681.9038
9446.7567
9171.7275
8874.9463
8592.6348
8329.3825
8083.7755
7854.4781
7640.2551
7440.0264
7252.7479
7077.504
6913.4505
6759.8095
6615.8764
6480.975
6348.6952
6209.0374
6061.8464
5908.0862
3347.4475
3347.4452
3347.443
3347.4409
3347.4389
3347.4369
3347.4351
3347.4333
3347.4316
3347.43
3347.4285
3347.427
3347.4257
3347.4244
3347.4232
3347.4221
3347.4211
3347.4201
3347.4193
3347.4186
3347.4179
3347.4173
3347.4169
3347.4165
3347.4162
3347.4161
3347.4161
3347.4162
3347.4165
3347.4169
3347.4174
3347.4183
3347.4192
3347.4204
3347.4219
3347.4237
3347.4259
3347.4285
3347.4316
3347.4353
3347.4395
3347.4446
3347.4499
3347.4575
3347.6527
3345.058
3341.7832
3351.687
3375.3183
3412.3897
3462.5902
3525.636
3601.2755
3689.289
3789.4814
3901.7525
4026.0215
4162.2774
4310.5914
4471.0727
4642.3627
4817.8445
4994.6283
5171.5006
5347.3944
5521.3687
5692.4786
5859.7081
6022.154
6178.8987
6329.0015
6471.3265
6606.17
6743.7578
6890.4766
7047.0849
7214.6664
7425.7648
3704.001
3749.2364
3830.4189
3916.8903
4008.9639
4107.0646
4211.5095
4320.4499
4420.7412
4506.3708
4576.0801
4473.2067
3941.4353
3896.6709
3870.3961
3837.2324
9524.1197
9491.8549
9165.0415
8771.1575
8344.1098
7947.4937
7663.3133
7488.1434
3710.7524
3630.3968
3621.6921
3621.357
3623.3703
7399.1989
9818.4228
4203.6085
9805.0609
4209.3819
1556.6457
4119.5466
4229.0462
4300.6565
1613.8993
4669.5319
4884.3778
5105.0219
5294.1947
5444.1087
5550.6695
5613.7579
5637.6417
5625.1545
5578.6845
5501.0775
5395.3074
5264.4009
5111.2496
4945.9174
4788.5879
4641.8731
4504.9914
4377.2016
4257.812
4146.2239
4041.8531
3944.1901
3852.7644
3767.1425
3686.9288
3611.7502
3538.0511
3460.2578
3378.265
3292.6079
1857.0389
1857.0349
1857.0311
1857.0275
1857.024
1857.0206
1857.0174
1857.0143
1857.0114
1857.0086
1857.006
1857.0034
1857.0011
1856.9988
1856.9968
1856.9948
1856.993
1856.9913
1856.9898
1856.9885
1856.9872
1856.9862
1856.9853
1856.9845
1856.9839
1856.9835
1856.9833
1856.9833
1856.9835
1856.984
1856.9846
1856.9856
1856.9868
1856.9884
1856.9905
1856.9929
1856.9959
1856.9994
1857.0036
1857.0086
1857.0144
1857.0212
1857.0285
1857.0381
1857.181
1855.8568
1854.1146
1859.6106
1872.7153
1893.2798
1921.1298
1956.1074
1998.072
2046.9024
2102.4897
2164.7768
2233.7209
2309.3137
2391.5946
2480.622
2575.6325
2672.9554
2770.9931
2869.0768
2966.6189
3063.0924
3157.9769
3250.7108
3340.7925
3427.7154
3510.9528
3589.8857
3664.6927
3741.045
3822.4742
3909.3872
4002.4691
4142.9709
1573.152
1567.8294
1592.1321
1617.8309
1644.8301
1673.177
1702.859
1733.2058
1760.8164
1784.61
1805.1054
1731.3414
1467.1829
1444.5655
1437.8094
1425.9773
5151.6011
5280.3362
5108.6383
4891.2885
4655.2838
4436.0634
4278.6794
4185.0058
1593.7826
1534.8212
1530.5379
1530.3555
1531.9594
4077.0096
7228.9509
2652.433
7214.8073
2659.2053
809.14152
2542.374
2632.6666
2663.8751
817.86227
2924.7898
3046.5096
3184.0453
3302.0885
3395.7807
3462.3803
3501.8685
3516.8635
3509.177
3480.266
3431.9377
3366.0279
3284.4416
3188.9664
3085.8574
2987.6994
2896.1602
2810.7558
2731.0264
2656.5377
2586.918
2521.8016
2460.8718
2403.8334
2350.4161
2300.3711
2253.4679
2207.4979
2158.9841
2107.8503
2054.4282
1155.2283
1155.2223
1155.2166
1155.2111
1155.2058
1155.2007
1155.1958
1155.1911
1155.1867
1155.1824
1155.1784
1155.1746
1155.1711
1155.1677
1155.1645
1155.1616
1155.1589
1155.1563
1155.154
1155.152
1155.1501
1155.1485
1155.1471
1155.1459
1155.145
1155.1443
1155.1439
1155.1438
1155.144
1155.1445
1155.1453
1155.1465
1155.1482
1155.1502
1155.1529
1155.156
1155.16
1155.1646
1155.1702
1155.1766
1155.1842
1155.1931
1155.2027
1155.2145
1155.3275
1154.5806
1153.5433
1156.9627
1165.1091
1177.8985
1195.2211
1216.978
1243.0821
1273.4576
1308.0365
1346.7825
1389.6698
1436.6922
1487.8737
1543.2494
1602.3387
1662.8571
1723.8163
1784.8025
1845.4522
1905.4373
1964.4353
2022.0975
2078.1115
2132.1636
2183.9271
2233.0236
2279.5773
2327.107
2377.796
2431.8966
2489.8428
2597.4617
814.44914
795.24915
801.33495
807.70898
814.15927
820.69066
827.29359
833.7687
839.61716
844.9653
850.74721
807.18141
678.4131
666.4461
664.66861
656.0138
3083.5068
3285.8115
3189.9491
3056.8156
2911.7274
2776.8275
2679.5557
2624.3619
838.87482
792.70276
789.74904
789.23586
790.33233
2513.0187
5450.2433
1815.0839
5436.9439
1822.9295
512.50398
1692.7425
1770.4798
1781.1616
506.6686
1978.1919
2049.7621
2142.199
2221.639
2284.8357
2329.7487
2356.4284
2366.5879
2361.4924
2342.088
2309.6259
2265.3213
2210.4729
2146.2703
2076.9088
2010.8495
1949.2426
1891.7637
1838.1066
1787.9767
1741.1252
1697.3048
1656.3033
1617.9209
1581.9755
1548.298
1516.7336
1485.8024
1453.1671
1418.7684
1382.8279
775.91454
775.90624
775.89828
775.89063
775.88328
775.87622
775.86946
775.86301
775.85686
775.85103
775.84551
775.84029
775.83536
775.83073
775.82641
775.82237
775.81866
775.81522
775.81211
775.80928
775.80678
775.80456
775.8027
775.80112
775.79992
775.79902
775.79855
775.79837
775.79869
775.79934
775.80053
775.80209
775.80434
775.807
775.81055
775.8146
775.81979
775.82563
775.83288
775.84105
775.85083
775.86193
775.87427
775.88872
775.98354
775.53813
774.87245
777.16871
782.6339
791.21934
802.85004
817.45914
834.98857
855.38639
878.6078
904.62744
933.42831
965.00537
999.37518
1036.5595
1076.2328
1116.8584
1157.7777
1198.7152
1239.4265
1279.6938
1319.3004
1358.0105
1395.6179
1431.9126
1466.6749
1499.6558
1530.9489
1562.9094
1596.9939
1633.3716
1672.2885
1760.9068
512.89189
490.98068
491.30945
491.77455
492.11183
492.34716
492.49541
492.48668
492.49406
492.80981
494.42732
471.10913
408.27849
401.44097
400.94966
391.93826
1974.0214
2203.8193
2150.6319
2063.6957
1968.2897
1879.4641
1814.9623
1780.3731
538.60301
500.58098
497.92005
496.97733
497.57667
1670.2096
4140.3449
1316.3876
4129.0291
1325.0601
383.20607
1191.0609
1258.3951
1258.3937
373.48949
1413.0826
1455.5894
1521.1159
1577.5231
1622.5404
1654.5182
1673.5579
1680.8258
1677.2679
1663.5201
1640.5082
1609.0745
1570.1585
1524.5937
1475.3516
1428.4318
1384.6736
1343.8468
1305.7371
1270.1328
1236.8591
1205.7386
1176.6215
1149.365
1123.8394
1099.9231
1077.5057
1055.5402
1032.3702
1007.9474
982.42763
550.32847
550.31763
550.30725
550.29728
550.28772
550.27855
550.26979
550.26142
550.25348
550.24595
550.23884
550.23212
550.22581
550.21989
550.21438
550.20925
550.20456
550.20023
550.19633
550.19281
550.18972
550.18701
550.18476
550.18289
550.18152
550.18053
550.18009
550.18005
550.18063
550.18162
550.18334
550.18548
550.18852
550.19205
550.19671
550.20196
550.20865
550.21607
550.22529
550.23554
550.24785
550.26163
550.27708
550.29461
550.37813
550.1063
549.65581
551.28333
555.15274
561.23661
569.4805
579.83679
592.26497
606.7268
623.19142
641.64002
662.06122
684.45022
708.81945
735.18311
763.30809
792.10173
821.10301
850.11812
878.97392
907.51641
935.59252
963.03562
989.70153
1015.4423
1040.1024
1063.5086
1085.7366
1108.4488
1132.6686
1158.5156
1186.0971
1261.4731
381.62667
360.50899
359.28077
358.28077
357.17984
356.01204
354.79745
353.48108
352.31066
351.53908
352.15707
340.39423
308.95231
304.6177
304.50531
294.87197
1329.2345
1559.2304
1532.1658
1473.1441
1407.6176
1346.5722
1301.8322
1279.2554
407.6957
375.01841
372.23546
370.85177
370.95899
1172.6294
3147.511
996.58012
3138.7939
1005.7012
321.06467
874.92394
932.55265
927.15164
310.86321
1051.1185
1076.0667
1124.3754
1166.053
1199.4587
1223.1694
1237.3263
1242.741
1240.161
1230.0195
1213.0385
1189.8204
1161.0772
1127.4152
1091.0266
1056.3361
1023.9828
993.79653
965.62208
939.30002
914.70317
891.69897
870.17724
850.03159
831.16571
813.48795
796.91558
780.67819
763.55447
745.50405
726.64098
406.45875
406.44526
406.43237
406.42001
406.40817
406.39684
406.38603
406.37574
406.36598
406.35675
406.34806
406.33988
406.33222
406.32505
406.31841
406.31227
406.30667
406.30155
406.29698
406.29288
406.28934
406.28628
406.2838
406.2818
406.28043
406.27954
406.27934
406.27963
406.28072
406.28229
406.28477
406.28777
406.29188
406.29657
406.30265
406.30941
406.31794
406.32731
406.33888
406.3516
406.36686
406.38375
406.40279
406.42393
406.50064
406.33632
406.01912
407.21945
410.06998
414.5571
420.63964
428.28219
437.45547
448.13007
460.28401
473.90249
488.97788
505.50568
523.49555
542.95705
563.7159
584.96303
606.36394
627.77603
649.0724
670.13911
690.86441
711.12642
730.81911
749.83457
768.05927
785.36821
801.82576
818.64972
836.58747
855.72998
876.08151
940.88316
318.90871
299.5648
298.1449
297.07407
295.94917
294.80501
293.66067
292.44908
291.36299
290.59538
291.12379
285.64939
269.33937
266.27914
266.30619
256.30014
934.52554
1148.4576
1137.9933
1097.0125
1050.7292
1007.7003
975.84959
960.7573
345.11027
316.17275
313.08002
311.2577
310.85011
859.43293
2388.2049
779.23544
2382.2227
788.39789
287.41571
665.9354
714.21197
706.32935
277.83131
806.46585
820.58958
857.27715
889.02485
914.61403
932.75631
943.62504
947.7882
945.86353
938.14449
925.21974
907.52798
885.63024
859.97959
832.2457
805.79089
781.11876
758.0989
736.61607
716.54608
697.79379
680.25674
663.85174
648.49651
634.11726
620.64251
608.00728
595.6269
582.57424
568.81425
554.43282
309.69602
309.67989
309.66452
309.64979
309.63572
309.62228
309.60949
309.59734
309.58585
309.57502
309.56485
309.5553
309.54641
309.53813
309.53051
309.5235
309.51715
309.51141
309.50633
309.50184
309.49804
309.49483
309.49234
309.49043
309.4893
309.48874
309.48904
309.48993
309.49178
309.49421
309.49776
309.50191
309.50741
309.51358
309.52143
309.53006
309.54081
309.5525
309.56683
309.58245
309.60112
309.62159
309.64471
309.67001
309.74309
309.64942
309.41899
310.3313
312.49541
315.90745
320.53523
326.35136
333.33427
341.46052
350.71421
361.08304
372.56195
385.14673
398.84519
413.66429
429.46804
445.63964
461.92953
478.22915
494.44272
510.48376
526.26807
541.7039
556.71126
571.20897
585.11204
598.32869
610.91481
623.78863
637.51172
652.15626
667.65681
723.34603
285.20957
267.95704
266.78587
266.05938
265.30453
264.55435
263.82768
263.04517
262.33138
261.83449
262.51102
260.46663
251.71741
249.36843
249.47293
239.3759
684.33213
873.2837
873.29262
844.50017
811.22769
780.54276
757.65503
747.53148
311.66079
285.69373
282.2197
279.96657
278.99389
652.95813
1807.7897
624.50736
1804.2914
633.33047
266.21333
522.62666
561.96722
553.18707
257.61183
633.9838
641.39759
669.90191
694.67252
714.77899
729.01351
737.57502
740.85737
739.39031
733.36657
723.28425
709.46589
692.36791
672.33615
650.67494
629.99977
610.71858
592.72853
575.94257
560.2611
545.6117
531.9128
519.10008
507.10827
495.87935
485.35571
475.48448
465.81082
455.61456
444.86484
433.62764
241.84074
241.82211
241.80438
241.78744
241.77129
241.7559
241.74128
241.72744
241.7144
241.70214
241.69068
241.67997
241.67004
241.66085
241.65245
241.64479
241.63792
241.63177
241.62643
241.62179
241.61798
241.61487
241.61262
241.61107
241.61044
241.61049
241.61157
241.61334
241.61626
241.61986
241.62478
241.63041
241.63763
241.64562
241.6556
241.66646
241.6798
241.69422
241.71172
241.73066
241.75318
241.7777
241.8054
241.83542
241.90726
241.86237
241.69061
242.40022
244.08195
246.73907
250.34567
254.88005
260.32609
266.66446
273.88367
281.97306
290.9294
300.74868
311.43758
323.00157
335.33002
347.94303
360.64971
373.36556
386.01646
398.53557
410.85807
422.91298
434.63908
445.97401
456.85304
467.2076
477.08761
487.20078
497.97833
509.47943
521.59718
569.17832
263.96827
249.06662
248.31758
248.0671
247.78798
247.51177
247.25975
246.94465
246.63755
246.45617
247.33
247.21219
242.45679
240.56803
240.73959
230.79473
521.70742
681.81838
688.0376
667.67889
643.49788
621.62303
605.30758
598.71741
290.94248
267.73615
263.89935
261.23804
259.64154
512.0881
1366.3764
510.20485
1364.8389
518.36267
250.38983
421.44108
452.45017
443.57387
242.89803
508.22291
511.49456
534.03375
553.73636
569.86786
581.26835
588.15663
590.79825
589.66133
584.86366
576.83991
565.82745
552.20801
536.24976
518.99309
502.51074
487.14069
472.79995
459.42199
446.92501
435.25314
424.33986
414.13461
404.58435
395.64239
387.26101
379.39572
371.68574
363.5613
354.99482
346.03796
192.62622
192.60535
192.58553
192.56663
192.54865
192.53157
192.51539
192.50012
192.48578
192.47236
192.45987
192.44826
192.43757
192.42773
192.41883
192.41078
192.40366
192.39738
192.39205
192.38753
192.38398
192.38125
192.37953
192.37861
192.37877
192.37973
192.38187
192.38482
192.3891
192.39417
192.40077
192.40819
192.41745
192.42758
192.44001
192.45344
192.46974
192.48723
192.50828
192.53092
192.55771
192.58669
192.61941
192.65466
192.72711
192.71741
192.58647
193.14835
194.47926
196.58796
199.45307
203.05707
207.38782
212.42894
218.17217
224.60797
231.73461
239.54819
248.05465
257.25843
267.06625
277.09915
287.2081
297.32618
307.39517
317.36233
327.17677
336.78287
346.13325
355.17924
363.87069
372.15622
380.08125
388.20049
396.85068
406.08211
415.76922
456.09544
247.7656
235.52717
235.3209
235.61834
235.86478
236.08906
236.31631
236.45701
236.54438
236.67804
237.75359
238.77132
236.2912
234.75905
235.00218
225.41765
413.78176
544.58308
553.91963
539.42126
521.71795
506.31277
495.02727
491.14311
275.61597
255.30455
251.21185
248.19267
245.92198
413.42137
1033.1227
423.29319
1032.8683
430.52515
236.70771
348.22163
371.69631
363.08348
230.37348
414.00649
414.74173
432.80534
448.72511
461.89548
471.18474
476.82627
478.98918
478.09683
474.21007
467.718
458.79388
447.76465
434.84081
420.86687
407.51012
395.05593
383.43606
372.59927
362.47705
353.02586
344.19038
335.9303
328.2016
320.96595
314.18287
307.81374
301.56771
294.98752
288.04818
280.79064
155.92631
155.90358
155.88203
155.86153
155.84208
155.82365
155.80625
155.7899
155.7746
155.76035
155.74715
155.73496
155.72381
155.71365
155.70454
155.69641
155.68934
155.68322
155.67818
155.67407
155.67107
155.66899
155.66807
155.66806
155.66928
155.6714
155.67488
155.67927
155.68517
155.69197
155.70051
155.70997
155.72153
155.73408
155.74923
155.76549
155.78501
155.80587
155.83075
155.85739
155.88875
155.92251
155.9606
156.00147
156.07594
156.09262
155.99068
156.4417
157.51013
159.20907
161.52058
164.4302
167.92881
172.00221
176.64462
181.84734
187.60978
193.92799
200.80777
208.25221
216.18062
224.29055
232.46373
240.64628
248.79189
256.85821
264.80502
272.58822
280.17054
287.51371
294.57869
301.32692
307.80076
314.4405
321.51223
329.05999
336.95738
370.84127
233.13875
223.84351
224.29616
225.21253
226.0432
226.8097
227.53769
228.13813
228.61763
229.06863
230.34616
232.07863
231.01974
229.8112
230.13348
221.07863
340.6468
443.79933
453.99381
443.50123
430.44781
419.87447
412.563
410.90002
262.22364
245.11524
240.96081
237.67295
234.7066
342.84565
783.59525
355.75072
783.89654
361.86105
223.68593
294.06816
310.95423
302.73809
218.5271
341.85269
341.03786
355.65955
368.69115
379.60514
387.28628
391.9777
393.77499
393.06783
389.87325
384.54665
377.2123
368.15592
357.54428
346.07317
335.10002
324.86961
315.32517
306.42692
298.1165
290.35981
283.11006
276.3347
269.99651
264.06346
258.50047
253.27308
248.14358
242.74084
237.04203
231.07986
127.91472
127.89061
127.86779
127.84613
127.82563
127.80628
127.78808
127.77103
127.75516
127.74044
127.7269
127.71448
127.70322
127.69304
127.68404
127.67613
127.6694
127.66373
127.65925
127.65581
127.65361
127.65243
127.65253
127.65366
127.65615
127.65965
127.66466
127.67067
127.67838
127.68709
127.69774
127.70941
127.72342
127.73854
127.75655
127.7758
127.79868
127.82304
127.85189
127.88268
127.91874
127.95744
128.00104
128.04778
128.12526
128.16232
128.08131
128.44702
129.31431
130.69984
132.58822
134.96742
137.83063
141.16525
144.96747
149.22918
153.95072
159.12815
164.76741
170.86933
177.36393
184.00723
190.70428
197.41106
204.09039
210.70782
217.23144
223.62588
229.86154
235.90823
241.7355
247.31469
252.68607
258.2024
264.07562
270.34531
276.89729
305.13666
218.55107
212.29955
213.49757
215.09328
216.57559
217.94857
219.2289
220.32331
221.21625
222.00048
223.48683
225.70626
225.63183
224.74482
225.15123
216.75986
289.82623
368.19884
377.64472
369.78128
360.05373
353.10788
348.99989
349.25763
249.10418
235.54181
231.59886
228.17669
224.53796
291.43869
598.32168
302.41521
598.4879
307.26942
210.70588
253.17952
264.51226
256.71442
206.73226
285.59942
283.81395
295.73075
306.51484
315.67626
322.10956
326.06303
327.57591
327.01156
324.35306
319.93029
313.82951
306.30474
297.48916
287.96332
278.8433
270.34194
262.41143
255.02088
248.11982
241.68151
235.6657
230.04588
224.79006
219.87097
215.25759
210.91847
206.65713
202.1696
197.43485
192.47919
106.11031
106.08538
106.0618
106.03949
106.01843
105.99861
105.98004
105.96272
105.94667
105.93188
105.91835
105.90604
105.89498
105.88511
105.87651
105.86908
105.86294
105.85794
105.85424
105.85167
105.85044
105.85032
105.85161
105.854
105.85788
105.86285
105.86947
105.8772
105.88676
105.89742
105.9102
105.9241
105.94057
105.95824
105.97908
106.00129
106.02747
106.05528
106.08801
106.12287
106.16355
106.2071
106.25611
106.30868
106.38973
106.44283
106.37702
106.67565
107.38572
108.52673
110.08528
112.05125
114.41966
117.17915
120.32743
123.85685
127.76853
132.05859
136.73327
141.79007
147.16936
152.67197
158.22112
163.78037
169.31973
174.81085
180.22827
185.5434
190.73281
195.77246
200.63864
205.31068
209.82721
214.47288
219.41757
224.69738
230.21873
253.58888
203.48168
200.13566
202.09014
204.37255
206.54443
208.58456
210.48433
212.13226
213.48236
214.63071
216.33923
218.92537
219.60745
219.05133
219.53921
211.90413
253.32297
310.34163
317.97332
311.7121
304.33159
300.08948
298.5843
300.54763
235.49835
225.7522
222.35192
218.97497
214.74421
253.33733
461.83682
259.80926
461.27713
263.32853
197.59297
221.66351
228.50801
221.11016
194.80944
241.10424
238.65767
248.40689
257.41328
265.19104
270.64084
274.01171
275.30001
274.84747
272.61107
268.90067
263.7729
257.45683
250.05958
242.07082
234.41558
227.28112
220.62664
214.42837
208.64206
203.24675
198.20738
193.5021
189.10301
184.9865
181.12462
177.48812
173.91304
170.14863
166.17543
162.01467
88.853725
88.828526
88.804738
88.782281
88.761154
88.741328
88.722823
88.705633
88.689789
88.675262
88.662077
88.65017
88.639585
88.630253
88.622261
88.615513
88.61012
88.605945
88.603143
88.601533
88.601342
88.602335
88.604813
88.608468
88.613709
88.620115
88.628277
88.63761
88.648913
88.661386
88.676137
88.692092
88.710795
88.730797
88.754213
88.779105
88.808277
88.839219
88.875486
88.914056
88.95894
89.006934
89.060924
89.118953
89.203633
89.269359
89.214579
89.459461
90.044557
90.991585
92.288729
93.927368
95.90401
98.208222
100.839
103.78898
107.06001
110.64826
114.56006
118.78951
123.28658
127.88696
132.52829
137.18005
141.81793
146.4185
150.96127
155.42299
159.78519
164.02864
168.13507
172.09017
175.9314
179.88968
184.10159
188.60051
193.31779
212.55246
187.91796
187.17455
189.81078
192.7041
195.52721
198.24055
200.80142
203.06129
204.92274
206.47511
208.42385
211.31828
212.64538
212.42946
212.98244
206.14385
225.93837
265.15554
270.36373
264.95791
259.19865
256.94594
257.52827
261.00567
221.1395
215.33064
212.82866
209.71356
205.03229
224.56281
361.95852
225.4792
360.22365
227.63598
184.40094
196.84776
200.24643
193.23395
182.81256
205.49997
202.52243
210.50258
218.0828
224.75266
229.41697
232.32146
233.43019
233.06639
231.16716
228.02614
223.67686
218.32835
212.06729
205.31061
198.82995
192.79173
187.16082
181.91914
177.02744
172.46937
168.21399
164.24314
160.53214
157.06016
153.80162
150.72886
147.70401
144.51908
141.15598
137.63184
75.006239
74.981326
74.957845
74.935729
74.914977
74.89556
74.877498
74.860785
74.845453
74.831472
74.818868
74.807576
74.797642
74.788995
74.781726
74.775737
74.771143
74.767803
74.765879
74.765186
74.765958
74.767955
74.77149
74.776243
74.782644
74.790255
74.799695
74.810356
74.823074
74.837017
74.853348
74.870945
74.891432
74.913294
74.938756
74.96579
74.997349
75.030807
75.069912
75.111496
75.15981
75.211477
75.269629
75.332306
75.420155
75.495538
75.448641
75.64977
76.134171
76.925164
78.012236
79.387946
81.05
82.988703
85.204082
87.68901
90.445978
93.471261
96.770597
100.33571
104.12477
108.00112
111.91396
115.83746
119.75192
123.6377
127.47841
131.255
134.95289
138.55678
142.05283
145.43172
148.73012
152.13614
155.75957
159.63151
163.70972
179.48288
172.06819
173.55613
176.75541
180.12388
183.47628
186.77733
189.96226
192.84266
195.24807
197.23687
199.43969
202.6165
204.54891
204.6757
205.25662
199.19378
204.27217
229.10485
231.66027
226.59998
221.93215
221.10266
223.31447
228.1029
206.04948
204.10645
202.83985
200.22395
195.28959
202.34504
289.19385
197.61634
285.9973
198.43037
171.29071
176.86538
177.79439
171.17971
170.91162
176.75157
173.25416
179.76425
186.18577
191.95758
195.9875
198.51415
199.47788
199.18529
197.55887
194.87858
191.16001
186.59573
181.25637
175.49976
169.97297
164.8251
160.02574
155.56137
151.39683
147.51946
143.90167
140.52821
137.37693
134.42915
131.66107
129.04627
126.46802
123.75315
120.88473
117.87664
63.768975
63.74483
63.722103
63.700735
63.680725
63.662044
63.644715
63.62873
63.614121
63.600859
63.588971
63.57839
63.569166
63.561227
63.554666
63.549384
63.5455
63.542871
63.541664
63.541691
63.543193
63.545926
63.550211
63.555724
63.562906
63.57131
63.581576
63.593078
63.606682
63.621533
63.638832
63.657431
63.679003
63.701998
63.728708
63.757061
63.790103
63.825147
63.866065
63.909618
63.960209
64.014376
64.075438
64.141514
64.231507
64.313733
64.272272
64.437313
64.839739
65.503828
66.420169
67.582226
68.988699
70.630444
72.508373
74.615535
76.955004
79.523217
82.324196
85.349455
88.563158
91.85118
95.172047
98.503707
101.83014
105.13473
108.40439
111.62342
114.78041
117.86316
120.86144
123.77004
126.62488
129.57962
132.72244
136.08239
139.64263
152.55519
156.2269
159.54545
163.18391
166.88108
170.60436
174.33897
178.01872
181.43494
184.34985
186.76722
189.21629
192.64645
195.17607
195.6361
196.18253
190.80986
186.10788
199.69481
199.67318
194.65071
190.70118
190.84335
194.26853
200.13777
190.42451
192.07313
192.31452
190.4326
185.48374
184.7184
236.23844
174.83867
231.45941
174.3733
158.45855
160.39677
159.73243
153.5636
159.31985
153.38366
149.2983
154.56384
160.03291
165.0689
168.58159
170.79892
171.64466
171.40984
170.00672
167.70331
164.50146
160.57988
155.99662
151.06084
146.31739
141.9008
137.78464
133.95904
130.39231
127.07467
123.98132
121.09928
118.40842
115.8917
113.52671
111.28791
109.076
106.74643
104.28334
101.6979
54.569721
54.546721
54.525084
54.50476
54.48575
54.468023
54.451604
54.436484
54.422697
54.410212
54.399057
54.389167
54.380593
54.373263
54.367272
54.362522
54.359132
54.356963
54.35618
54.356599
54.358461
54.361525
54.366113
54.371902
54.379337
54.387972
54.398449
54.410147
54.423935
54.43896
54.456432
54.475204
54.49696
54.520153
54.547094
54.575712
54.60908
54.644518
54.685938
54.730109
54.781491
54.836634
54.898962
54.966769
55.057359
55.143611
55.105638
55.240606
55.575814
56.135823
56.912188
57.899027
59.095872
60.494001
62.095065
63.892251
65.8892
68.082185
70.473458
73.055325
75.796511
78.601355
81.435989
84.281413
87.124555
89.951266
92.751069
95.510968
98.222123
100.8748
103.46168
105.9809
108.46758
111.04754
113.79139
116.72631
119.85819
130.43132
140.7091
145.44028
149.39773
153.29061
157.23295
161.23459
165.23605
169.02735
172.33308
175.10295
177.74771
181.3554
184.43742
185.20013
185.63159
180.81759
170.0295
175.16375
172.86785
167.74198
164.2628
165.02154
169.28038
175.97246
174.56022
179.3458
181.26291
180.32022
175.61374
170.27398
197.55177
156.06393
191.22295
154.42173
146.09395
146.50438
144.99912
139.35736
148.2457
134.30743
129.51295
133.70341
138.38057
142.80785
145.89545
147.85734
148.60649
148.41899
147.20065
145.20855
142.4343
139.04466
135.08787
130.83252
126.73886
122.92893
119.37977
116.08443
113.01413
110.16144
107.50382
105.03008
102.72173
100.56293
98.532318
96.605091
94.696441
92.685533
90.557511
88.321316
46.989456
46.96785
46.947518
46.928416
46.910545
46.893876
46.878434
46.864209
46.851236
46.839483
46.828981
46.819665
46.811587
46.804678
46.79903
46.79455
46.791354
46.789308
46.788575
46.788977
46.790749
46.793658
46.798021
46.803524
46.810603
46.818825
46.82882
46.839983
46.853168
46.867544
46.8843
46.902318
46.923255
46.945603
46.971636
46.999338
47.031737
47.066226
47.106666
47.149918
47.200394
47.254752
47.316435
47.383996
47.473242
47.560679
47.524626
47.634352
47.914217
48.388365
49.04922
49.891347
50.914967
52.111685
53.483768
55.02452
56.738121
58.620029
60.671688
62.886152
65.235848
67.640345
70.072015
72.514306
74.956554
77.386578
79.796005
82.174007
84.513787
86.807578
89.050476
91.243166
93.419895
95.683854
98.091429
100.66794
103.43842
112.11308
125.8087
131.53446
135.69318
139.66426
143.69235
147.81136
151.96825
155.95755
159.49264
162.48585
165.23476
168.88364