/*--------------------------------*- C++ -*----------------------------------*\
| =========                 |                                                 |
| \\      /  F ield         | OpenFOAM: The Open Source CFD Toolbox           |
|  \\    /   O peration     | Version:  2.4.0                                 |
|   \\  /    A nd           | Web:      www.OpenFOAM.org                      |
|    \\/     M anipulation  |                                                 |
\*---------------------------------------------------------------------------*/
FoamFile
{
    version     2.0;
    format      ascii;
    class       volVectorField;
    location    "330";
    object      U;
}
// * * * * * * * * * * * * * * * * * * * * * * * * * * * * * * * * * * * * * //

dimensions      [0 1 -1 0 0 0 0];

internalField   nonuniform List<vector> 
19475
(
(0.0054256268 2.3170595e-05 1.3359435e-21)
(0.0039800703 1.9948257e-05 -1.3129003e-21)
(0.0067961286 -4.3108273e-05 1.1182877e-21)
(0.0053247576 -0.00016372518 -3.06939e-20)
(0.0059056457 -0.00040020595 -8.7195414e-21)
(0.0033504686 -0.00039264225 1.6931319e-20)
(0.0021421264 -0.00038876439 9.8914656e-21)
(-0.00066888731 0.00016137628 -3.4998625e-20)
(-0.0016075392 0.00052670892 -1.2895687e-20)
(-0.0023573991 0.00099311621 1.4675782e-20)
(-0.0019358645 0.00097555202 9.0775519e-21)
(-0.0017052417 0.00098434795 -2.3508652e-20)
(-0.001256904 0.0008022417 3.6876549e-21)
(-0.0011065851 0.00076538001 -1.7208769e-20)
(-0.00090245685 0.0006630634 1.2906677e-20)
(-0.00084681037 0.00065303884 -1.8292208e-20)
(-0.00074147818 0.00059283549 -5.6653256e-21)
(-0.00071520042 0.00058838875 2.5805326e-21)
(-0.0006516011 0.00054677124 -9.2212425e-21)
(-0.00062373 0.00053045166 6.3953829e-21)
(-0.00057537793 0.00049237421 7.9275036e-21)
(-0.00054678148 0.00046801674 -6.2651635e-21)
(-0.00050967961 0.00043337336 -2.1769237e-21)
(-0.00049252755 0.00041415575 9.2236823e-22)
(-0.00047391876 0.0003939481 2.1102016e-21)
(-0.00046689514 0.00038399902 4.6710064e-22)
(-0.00046053952 0.00037497168 5.8057701e-22)
(-0.00046311826 0.0003735985 -1.8485016e-21)
(-0.00046861577 0.00037481123 -1.5155525e-21)
(-0.00048188159 0.00038245197 -1.0205387e-21)
(-0.00049967283 0.00039381822 1.1018689e-21)
(-0.00052461431 0.00041094848 2.3917484e-21)
(-0.00055471595 0.00043222995 9.4136858e-22)
(-0.0005911645 0.00045859486 1.3098177e-21)
(-0.00063180004 0.00048837547 -1.4567261e-21)
(-0.00067568257 0.0005209304 9.8100976e-22)
(-0.00071776786 0.0005516917 -1.574077e-21)
(-0.00075894022 0.00057992093 -5.0170458e-23)
(-0.00079970665 0.00060559506 -2.2562593e-21)
(-0.00083935225 0.00062786181 3.5161886e-22)
(-0.0017411496 -3.3532369e-07 -8.6590916e-24)
(-0.0017033807 -3.3957101e-07 8.9622696e-24)
(-0.0016657204 -3.430069e-07 8.3142465e-25)
(-0.0016282336 -3.4612507e-07 -8.171554e-24)
(-0.0015908862 -3.4998235e-07 4.5330488e-24)
(-0.0015537358 -3.5309984e-07 -4.9929907e-24)
(-0.0015167154 -3.5663307e-07 7.3649895e-24)
(-0.0014799099 -3.5862048e-07 -1.8847787e-24)
(-0.0014432455 -3.6075278e-07 -3.7002336e-24)
(-0.0014068525 -3.6169943e-07 1.1888311e-24)
(-0.0013706236 -3.6364658e-07 4.8024739e-24)
(-0.001334724 -3.6500015e-07 -5.5714976e-24)
(-0.0012989818 -3.6693764e-07 4.874249e-24)
(-0.0012636146 -3.6836019e-07 -5.3239623e-24)
(-0.0012283822 -3.6940131e-07 2.7320384e-24)
(-0.0011935965 -3.7034586e-07 3.1213357e-24)
(-0.001158926 -3.7063671e-07 5.0644604e-24)
(-0.0011247964 -3.7134376e-07 -5.7990104e-24)
(-0.0010907404 -3.7113405e-07 -3.9901307e-24)
(-0.0010573367 -3.7101105e-07 5.1374723e-24)
(-0.0010239438 -3.6970177e-07 -1.0939427e-23)
(-0.00099135932 -3.6819889e-07 1.0184414e-23)
(-0.00095870619 -3.6604181e-07 -6.0410291e-24)
(-0.00092706839 -3.630811e-07 5.2635644e-24)
(-0.00089525386 -3.6006149e-07 -6.1229574e-24)
(-0.00086472948 -3.5538679e-07 -4.2178404e-24)
(-0.0008338814 -3.5212626e-07 3.3396977e-24)
(-0.00080469705 -3.463546e-07 -4.2713067e-24)
(-0.00077500054 -3.4374347e-07 1.1000887e-23)
(-0.00074745436 -3.3796252e-07 -6.6867538e-24)
(-0.00071912807 -3.3692039e-07 5.8577166e-24)
(-0.00069358342 -3.3078976e-07 -1.0035478e-23)
(-0.00066691004 -3.3021132e-07 9.3918442e-25)
(-0.00064387211 -3.2265265e-07 3.4779094e-24)
(-0.00061927387 -3.2244066e-07 3.9046013e-24)
(-0.00059946505 -3.1319426e-07 -1.4893937e-23)
(-0.00057757534 -3.1460837e-07 8.691399e-17)
(-0.00056199962 -3.0460814e-07 8.7442789e-17)
(-0.00054372646 -3.0873317e-07 -4.4437733e-24)
(-0.00053372559 -2.9805822e-07 -6.6161611e-24)
(-0.00052034704 -3.0570698e-07 5.774873e-24)
(-0.00051761997 -2.9439841e-07 1.0519065e-24)
(-0.00051081413 -3.0657474e-07 -1.9098472e-24)
(-0.00051704304 -2.9621114e-07 -8.9810827e-17)
(-0.00051686629 -3.2056986e-07 -9.0372783e-17)
(-0.00052829348 -6.3387439e-06 -1.6191644e-20)
(-0.00053711377 -2.7670736e-05 1.6810178e-19)
(-0.00053917571 -4.9607594e-05 7.6312792e-20)
(-0.00054377136 -7.1910857e-05 -4.9512772e-19)
(-0.00053350462 -9.1763628e-05 -8.2477005e-20)
(-0.00052519713 -0.00011101315 -5.5246042e-19)
(-0.00050343328 -0.00012591779 3.6968854e-20)
(-0.00048227102 -0.00013906142 -5.7734676e-21)
(-0.0004497275 -0.00014651222 2.0526563e-19)
(-0.00041622917 -0.00015089516 -1.6150858e-19)
(-0.00037298387 -0.00014855355 5.268552e-19)
(-0.00032724351 -0.00014174483 -3.5928052e-19)
(-0.00027266368 -0.00012721991 -9.7731683e-20)
(-0.00021399775 -0.00010663441 -1.7971346e-19)
(-0.00014641619 -7.6993408e-05 1.0219386e-18)
(-7.2488019e-05 -3.9011421e-05 2.2385833e-19)
(1.2918419e-05 1.0916147e-05 -8.7381264e-19)
(0.00010527322 7.0195628e-05 -9.5949211e-19)
(0.00020797607 0.00014087535 -1.5340753e-19)
(0.00031798599 0.00022072618 7.394228e-20)
(0.00043811232 0.00031128898 -1.0321114e-18)
(0.00056601932 0.00041047272 -6.8936558e-20)
(0.00070383908 0.00051932115 -1.8759548e-19)
(0.00084917803 0.00063543445 -1.2294789e-18)
(0.0010033754 0.00075914743 1.8658188e-19)
(0.0011633894 0.00088732991 1.0094042e-18)
(0.0013293282 0.0010191206 7.3161049e-19)
(0.0014947089 0.001148778 -2.7389737e-19)
(0.0016525239 0.0012728821 -1.3560951e-19)
(0.0018061442 0.0013957103 -1.2572154e-19)
(0.0019577387 0.0015192213 2.5648995e-19)
(0.0021053145 0.0016421805 9.0103583e-19)
(0.0022534814 0.0017685434 -9.7903607e-19)
(0.0023772974 0.0018788571 2.6243464e-19)
(0.0025092205 0.0019989224 2.7214011e-20)
(0.0026554444 0.0021340808 2.4770983e-19)
(0.0028194474 0.0022874009 1.4670516e-19)
(0.003005614 0.0024633871 -6.8846389e-20)
(0.003212436 0.0026616118 3.4744357e-19)
(0.0034549086 0.0028955943 -4.1612083e-20)
(0.0037434927 0.0031728092 -7.2698001e-19)
(0.0041289426 0.0035222351 -1.7421138e-20)
(0.0045597916 0.0038888759 -4.7440249e-19)
(0.0050847066 0.0043084216 4.4277586e-19)
(0.0056578036 0.0047302646 3.6617879e-20)
(0.0063684875 0.005217332 5.4645605e-20)
(0.0071465984 0.0056911166 -1.2846637e-19)
(0.0081469264 0.0062535727 7.9575753e-20)
(0.0092493678 0.0067697328 5.6740404e-20)
(0.01072794 0.0073901709 -4.760189e-20)
(0.012325542 0.0078496411 1.0541172e-19)
(0.014374651 0.0082775834 -8.792666e-20)
(0.016255948 0.0081961428 -3.3850646e-19)
(0.018194058 0.0076788193 -4.1583517e-19)
(0.018392814 0.0061213934 -8.2934193e-20)
(0.017481416 0.0043837121 1.26408e-19)
(0.014986494 0.0026763114 -1.5951279e-19)
(0.012768562 0.0015025799 -9.8378502e-20)
(0.0093751895 0.00064167617 -2.0961164e-20)
(0.0078533277 0.00024632904 -3.1232923e-20)
(0.0048225407 3.4265456e-05 -1.8980251e-20)
(0.0051107902 -2.8050186e-05 -1.0922918e-20)
(0.0024578086 -1.1198138e-05 -1.8704885e-21)
(0.016424522 6.0817154e-05 1.4701852e-21)
(0.012596514 5.16969e-05 3.7795086e-21)
(0.020562708 -0.00013768883 -4.113212e-21)
(0.016304345 -0.00049529629 3.6061649e-20)
(0.017934036 -0.0011985734 5.2470637e-22)
(0.010452519 -0.0011889403 6.2357477e-20)
(0.0068011327 -0.0011826761 -2.602808e-20)
(-0.0016013724 0.00044213204 4.9655164e-20)
(-0.0045842235 0.0015481793 3.8998597e-20)
(-0.0069507184 0.0029592684 -3.4705887e-20)
(-0.0057705988 0.002924629 -1.0906187e-20)
(-0.0051043577 0.0029567913 3.5572914e-21)
(-0.0037792168 0.0024184491 8.342693e-20)
(-0.0033283086 0.0023077677 1.2940777e-20)
(-0.0027195893 0.0020029653 -3.5150472e-20)
(-0.00255057 0.0019717956 1.6282942e-20)
(-0.0022358733 0.0017921139 -9.1794118e-21)
(-0.0021554583 0.0017778738 -3.5095859e-21)
(-0.0019655843 0.0016534116 -9.6133577e-21)
(-0.0018814586 0.0016038644 2.6599795e-21)
(-0.001737208 0.0014897278 -3.6595307e-21)
(-0.0016515747 0.0014162513 3.0366082e-21)
(-0.0015410462 0.001312339 3.5105076e-21)
(-0.0014898001 0.0012543751 7.3582743e-21)
(-0.0014346498 0.00119378 -1.9083946e-21)
(-0.0014140527 0.0011638988 -2.4489235e-21)
(-0.001395738 0.0011370288 -3.2874221e-21)
(-0.0014041051 0.0011331233 1.5578796e-21)
(-0.0014214109 0.0011371491 6.6631629e-22)
(-0.0014619408 0.0011604911 3.3751235e-21)
(-0.0015161317 0.0011951311 -5.5398903e-21)
(-0.0015916833 0.0012470934 -3.5196924e-21)
(-0.0016826947 0.0013115741 -6.8228264e-22)
(-0.0017925892 0.0013912904 -1.3988486e-21)
(-0.0019149052 0.0014812414 -4.2678783e-23)
(-0.002046821 0.0015794393 4.6830073e-21)
(-0.0021734142 0.0016722696 3.7250463e-21)
(-0.0022972124 0.0017574426 1.538718e-22)
(-0.002419749 0.0018348548 2.221198e-21)
(-0.0025389062 0.0019019399 1.7509705e-22)
(-0.0052037645 -1.2218227e-06 3.1752263e-24)
(-0.0050899938 -1.2190333e-06 -7.4764419e-24)
(-0.0049765565 -1.2152317e-06 9.3894897e-24)
(-0.0048636242 -1.2109054e-06 1.2715723e-24)
(-0.0047510969 -1.2062052e-06 -8.3540819e-24)
(-0.0046391537 -1.2015176e-06 1.4823418e-23)
(-0.00452762 -1.1960698e-06 -1.0933382e-23)
(-0.0044167477 -1.1892347e-06 1.4530415e-24)
(-0.0043063151 -1.1815683e-06 2.0296046e-24)
(-0.0041966927 -1.1729585e-06 -1.0401083e-23)
(-0.0040875568 -1.1641302e-06 1.1601597e-23)
(-0.0039793928 -1.1548313e-06 2.2764734e-24)
(-0.0038717035 -1.1459141e-06 -5.9192083e-24)
(-0.0037651395 -1.1358424e-06 -6.0124913e-24)
(-0.0036590003 -1.1257583e-06 -1.1638476e-23)
(-0.0035542006 -1.1138445e-06 2.1177098e-23)
(-0.0034497655 -1.1025645e-06 1.4761279e-23)
(-0.0033469465 -1.0891923e-06 -3.1983067e-23)
(-0.0032443809 -1.0767981e-06 3.1880795e-23)
(-0.0031437733 -1.0610462e-06 -9.4994979e-24)
(-0.0030432436 -1.0465806e-06 -1.4803169e-23)
(-0.0029451354 -1.0278629e-06 -1.2215458e-23)
(-0.0028468735 -1.0111301e-06 -4.8721384e-25)
(-0.0027516449 -9.8919456e-07 2.7658454e-23)
(-0.0026559469 -9.7014962e-07 -2.0496554e-23)
(-0.0025640926 -9.4463979e-07 1.2899695e-23)
(-0.0024713353 -9.2317303e-07 -2.0602951e-23)
(-0.0023835182 -8.9391465e-07 2.2937614e-23)
(-0.0022942326 -8.7102678e-07 -1.2679558e-23)
(-0.0022113235 -8.3823975e-07 7.5684704e-24)
(-0.0021261687 -8.1376861e-07 2.544619e-24)
(-0.0020492784 -7.7530288e-07 -1.2902701e-23)
(-0.0019691306 -7.4734167e-07 1.342359e-23)
(-0.0018997896 -7.002764e-07 -1.873734e-25)
(-0.0018259295 -6.6679569e-07 5.2212718e-24)
(-0.0017663009 -6.0774137e-07 -2.4408772e-23)
(-0.001700619 -5.6677936e-07 1.6502675e-23)
(-0.001653695 -4.9183493e-07 5.2853031e-24)
(-0.0015989051 -4.4135078e-07 -2.4777258e-23)
(-0.0015686975 -3.4530272e-07 2.4414127e-23)
(-0.0015286317 -2.8338989e-07 1.6923672e-23)
(-0.0015202256 -1.6061708e-07 -2.505025e-23)
(-0.00149992 -9.009418e-08 1.9752255e-23)
(-0.0015183702 3.8495977e-08 -2.8031026e-23)
(-0.0015182811 4.3364431e-08 -2.9803445e-23)
(-0.0015531054 -1.7698796e-05 4.2277892e-20)
(-0.0015795694 -8.1182969e-05 1.8416022e-20)
(-0.0015851068 -0.00014638916 8.9104597e-21)
(-0.0015977242 -0.00021270798 5.9169941e-19)
(-0.0015660833 -0.00027167053 2.9577717e-19)
(-0.0015399762 -0.00032870426 1.3619092e-18)
(-0.0014737772 -0.00037271476 1.2045795e-18)
(-0.0014091109 -0.00041130672 -3.1338395e-19)
(-0.0013104717 -0.00043283111 -3.901726e-19)
(-0.0012087987 -0.00044502605 8.6219331e-20)
(-0.0010780478 -0.00043704131 -2.7929685e-19)
(-0.0009398015 -0.00041553429 2.2419293e-19)
(-0.00077526129 -0.00037085094 -2.4978939e-19)
(-0.0005985814 -0.00030787447 -1.1105621e-19)
(-0.00039540027 -0.00021769166 -8.1308041e-19)
(-0.00017329145 -0.00010238629 1.9055063e-18)
(8.2986068e-05 4.8716e-05 7.2364612e-19)
(0.00036004419 0.00022790259 4.7010337e-20)
(0.00066794553 0.0004412313 -4.9739454e-19)
(0.000997684 0.00068208475 -5.8442357e-19)
(0.0013574188 0.00095502521 1.2421969e-18)
(0.0017401882 0.001253816 -2.248969e-18)
(0.0021523212 0.0015815375 5.0137733e-19)
(0.0025867456 0.0019310314 -2.4856938e-19)
(0.0030474834 0.0023032212 4.0701882e-19)
(0.0035256479 0.0026888146 -9.2700291e-19)
(0.0040214897 0.0030851217 -2.6344695e-19)
(0.0045158491 0.0034751156 -5.9672561e-19)
(0.004988254 0.0038487889 3.794337e-19)
(0.0054484661 0.0042188016 -8.2219794e-19)
(0.0059025672 0.0045909206 -4.4964092e-19)
(0.0063449371 0.0049616425 -8.0563838e-19)
(0.0067879467 0.0053420963 4.0182112e-20)
(0.0071550932 0.0056725511 9.6843428e-19)
(0.0075489974 0.006033486 -3.7367164e-19)
(0.0079866671 0.0064403646 4.3633221e-19)
(0.00847707 0.0069018672 -2.7835512e-19)
(0.0090329307 0.0074312841 -1.3589826e-18)
(0.0096501194 0.0080275765 2.5312618e-19)
(0.010372812 0.0087308105 1.5345301e-19)
(0.011232325 0.0095636224 1.2923405e-18)
(0.012376309 0.01061013 -2.2572067e-19)
(0.013656246 0.01170924 2.325572e-19)
(0.015214034 0.012964527 -3.9205375e-20)
(0.016916867 0.0142281 -1.4020001e-19)
(0.019023873 0.015682647 -3.8175208e-19)
(0.021334636 0.017099764 5.4066241e-20)
(0.024297702 0.01877458 -7.1929363e-20)
(0.027569469 0.020314474 8.8472623e-20)
(0.031947247 0.022154615 1.6471386e-20)
(0.036690294 0.023521599 -1.2845354e-19)
(0.042740606 0.024774581 2.252239e-19)
(0.048312508 0.024521902 9.0985366e-20)
(0.054033984 0.022957061 5.021852e-19)
(0.054764125 0.018347323 -2.6205798e-19)
(0.05226102 0.013187579 2.6557357e-19)
(0.045117528 0.0081094691 -1.2475478e-19)
(0.038624891 0.0045838098 -3.6368835e-19)
(0.028687532 0.0019928087 -9.2774901e-20)
(0.024082918 0.00078264368 8.7732383e-21)
(0.015134459 0.0001258438 3.0141185e-20)
(0.015806882 -7.1042683e-05 5.7091211e-21)
(0.0082131461 -3.5832611e-05 6.7911104e-21)
(0.027839674 8.6276383e-05 1.3766039e-21)
(0.021950311 7.2280702e-05 -1.294647e-21)
(0.034682842 -0.00024403062 -4.4036682e-22)
(0.027843652 -0.00083703296 -1.8151564e-20)
(0.030352846 -0.0020018894 5.3316153e-20)
(0.018117086 -0.0020182364 -4.1588857e-20)
(0.011916337 -0.0020174129 2.5831247e-20)
(-0.0021034832 0.00064657174 -1.0556015e-19)
(-0.0073648593 0.0025205934 5.3873412e-20)
(-0.011493838 0.0049036899 1.4203653e-21)
(-0.0096387056 0.0048823747 1.5324439e-20)
(-0.0085522479 0.0049466338 -1.9233807e-20)
(-0.0063579767 0.0040630501 -8.2940555e-20)
(-0.0055990316 0.0038779336 2.5281478e-20)
(-0.0045830716 0.0033732339 3.772197e-20)
(-0.0042955453 0.0033190323 -4.3511523e-21)
(-0.0037696094 0.0030207484 3.8107937e-21)
(-0.0036320473 0.0029951489 7.4908095e-21)
(-0.0033147787 0.0027879275 2.0552908e-20)
(-0.0031725752 0.0027039557 -1.0903376e-20)
(-0.002931496 0.0025134244 -1.0368269e-20)
(-0.0027876223 0.0023898687 -1.7298945e-21)
(-0.0026029864 0.0022163407 4.0722085e-21)
(-0.0025169312 0.0021189832 -8.1393864e-21)
(-0.0024251031 0.0020178916 2.0863792e-22)
(-0.0023909239 0.0019679909 -2.9168583e-21)
(-0.0023610447 0.0019235945 2.487426e-21)
(-0.0023757473 0.001917558 1.4760382e-21)
(-0.0024057456 0.001925119 7.4290142e-23)
(-0.0024746003 0.0019650088 1.6001284e-21)
(-0.0025665317 0.0020240181 -6.2552249e-22)
(-0.0026941969 0.0021120208 -5.8827026e-22)
(-0.002847817 0.0022210696 -2.4034063e-21)
(-0.0030329381 0.0023555395 9.9770733e-23)
(-0.0032387756 0.0025070771 -5.6734191e-21)
(-0.0034605495 0.0026722089 -4.2135173e-21)
(-0.0036735181 0.0028283551 -8.5191152e-22)
(-0.0038817257 0.002971565 2.2833e-22)
(-0.0040877406 0.0031016056 3.102622e-22)
(-0.0042880476 0.0032142091 -7.7977096e-22)
(-0.0087001965 -3.2934376e-06 -1.372766e-23)
(-0.0085086442 -3.2821181e-06 6.3070824e-24)
(-0.0083176582 -3.2685401e-06 -2.6438207e-24)
(-0.0081275068 -3.2535459e-06 -4.8927324e-24)
(-0.0079380295 -3.2384798e-06 2.6770935e-24)
(-0.0077495259 -3.2224027e-06 9.9079858e-24)
(-0.0075617267 -3.2059108e-06 -1.1095031e-23)
(-0.0073750466 -3.1866463e-06 8.9614017e-24)
(-0.0071891226 -3.1661403e-06 3.9990631e-24)
(-0.0070045521 -3.1428661e-06 -2.757019e-24)
(-0.0068208042 -3.1194888e-06 -1.435958e-23)
(-0.0066386725 -3.0946536e-06 1.8530263e-23)
(-0.0064573525 -3.0698333e-06 -2.0386954e-23)
(-0.0062779147 -3.0434316e-06 1.6419413e-23)
(-0.006099221 -3.0159511e-06 -1.8960041e-23)
(-0.0059227663 -2.9865168e-06 1.6654966e-23)
(-0.0057469593 -2.9556744e-06 1.6902352e-23)
(-0.0055738473 -2.9230228e-06 -3.1375407e-23)
(-0.0054012121 -2.8891947e-06 2.3132364e-23)
(-0.0052318454 -2.8525894e-06 -2.8246261e-23)
(-0.0050626792 -2.8143241e-06 3.2775079e-23)
(-0.0048975482 -2.7718157e-06 -2.6065632e-23)
(-0.0047322445 -2.7283242e-06 4.3383319e-24)
(-0.0045719871 -2.6787714e-06 2.7200601e-23)
(-0.0044110472 -2.6290834e-06 -1.5772063e-23)
(-0.0042564911 -2.5712982e-06 1.0893744e-23)
(-0.0041005478 -2.5145086e-06 -2.689404e-23)
(-0.0039527951 -2.4463878e-06 2.5208301e-23)
(-0.0038027288 -2.3817034e-06 -3.4399018e-23)
(-0.003663226 -2.3026601e-06 2.9306792e-23)
(-0.0035201515 -2.2286174e-06 -2.7550441e-23)
(-0.0033907763 -2.1338351e-06 2.1123188e-23)
(-0.0032561907 -2.0445622e-06 -1.9318554e-23)
(-0.0031395213 -1.9264535e-06 7.3224191e-24)
(-0.0030155912 -1.8145593e-06 1.8775348e-23)
(-0.0029152526 -1.663205e-06 -2.8271455e-23)
(-0.0028051534 -1.5205307e-06 3.5917444e-23)
(-0.00272615 -1.3241336e-06 -2.3758955e-23)
(-0.002634437 -1.1402746e-06 1.1601814e-23)
(-0.0025834861 -8.8210641e-07 -3.3709943e-24)
(-0.0025165948 -6.4576996e-07 -6.2112567e-24)
(-0.0025022155 -3.0704591e-07 -1.7393835e-23)
(-0.0024686007 -2.2760537e-08 1.9450006e-23)
(-0.0024992789 3.3651598e-07 2.2479828e-23)
(-0.0025000489 4.5852218e-07 -2.8784831e-23)
(-0.0025591931 -2.8602033e-05 -4.3243822e-20)
(-0.0026036202 -0.00013356273 -2.891779e-19)
(-0.0026122772 -0.00024121805 -2.7605614e-20)
(-0.0026319169 -0.00035075811 -2.2912646e-19)
(-0.0025780446 -0.0004479828 -4.0986327e-19)
(-0.0025328007 -0.00054177699 -8.8962711e-19)
(-0.0024209451 -0.00061382445 -1.0280738e-19)
(-0.0023111869 -0.00067657196 1.122334e-18)
(-0.0021448977 -0.00071081365 -1.4707764e-19)
(-0.0019732254 -0.00072923096 -1.7530938e-19)
(-0.0017531211 -0.00071392762 -9.2919906e-19)
(-0.001520323 -0.00067582217 -6.3349769e-19)
(-0.0012437183 -0.00059897088 -1.1078697e-18)
(-0.00094674664 -0.0004913666 -4.8944661e-19)
(-0.00060557334 -0.00033826256 -4.9889079e-19)
(-0.00023263199 -0.00014301815 -8.6881813e-19)
(0.0001972991 0.00011194295 -1.3227608e-18)
(0.00066209847 0.000413914 -3.6195505e-20)
(0.0011784071 0.00077281813 1.8383539e-18)
(0.001731336 0.0011777664 5.2414036e-19)
(0.0023342728 0.001636184 -6.4882901e-19)
(0.0029756731 0.0021378119 2.2764e-18)
(0.0036659954 0.0026876019 -1.8119543e-19)
(0.0043935488 0.0032737588 2.7519081e-20)
(0.0051649522 0.0038976578 -1.1698913e-18)
(0.0059655813 0.004543952 1.0270764e-18)
(0.0067956505 0.0052079903 -4.9757296e-19)
(0.0076234046 0.0058616816 -4.4288005e-19)
(0.0084152353 0.0064887323 -7.7794565e-19)
(0.0091870983 0.0071099044 8.6537191e-19)
(0.0099487475 0.0077347005 3.6001291e-20)
(0.010691232 0.0083576101 -1.2757185e-18)
(0.011433137 0.0089960168 4.2672794e-20)
(0.012043738 0.0095468636 -1.0880632e-18)
(0.012702895 0.010150936 -5.2369331e-19)
(0.01343673 0.01083302 -1.4444087e-18)
(0.014258659 0.01160666 1.3012352e-18)
(0.015189405 0.012493472 2.9352504e-19)
(0.016222671 0.013492228 -1.0527281e-18)
(0.017431498 0.014668751 8.9676658e-21)
(0.018868934 0.016061299 -5.2300544e-19)
(0.020775866 0.017805193 -3.9934258e-21)
(0.022911474 0.019639055 -4.4304902e-19)
(0.025506948 0.021728711 -3.2945268e-19)
(0.02834732 0.023834932 2.5207333e-19)
(0.031853581 0.026250583 4.6934902e-19)
(0.035704606 0.02860853 -4.7573883e-19)
(0.040627992 0.031380444 2.3980382e-20)
(0.046073959 0.033934986 1.6045524e-20)
(0.053338223 0.036966993 3.4106107e-20)
(0.061228852 0.039229952 1.2890802e-19)
(0.071235745 0.041265284 -8.270137e-20)
(0.08048059 0.040832942 -3.5741466e-19)
(0.089914985 0.038197718 -4.1344475e-19)
(0.091312944 0.030621829 -2.167473e-19)
(0.087400757 0.022102826 -5.4828252e-19)
(0.075908739 0.013705736 3.7014393e-19)
(0.06521347 0.0078034101 1.2775367e-19)
(0.04892977 0.003457943 2.2360767e-19)
(0.041103307 0.001386926 -8.3931473e-21)
(0.026361453 0.00025252349 1.4633594e-20)
(0.027140343 -9.6740226e-05 1.7919756e-21)
(0.014867559 -6.4250008e-05 9.3937527e-21)
(0.039739231 9.9483274e-05 9.5381729e-22)
(0.032038019 8.1809401e-05 -2.2717518e-21)
(0.049144682 -0.00036341511 -6.3035266e-21)
(0.039988414 -0.0011891625 -1.0924387e-20)
(0.043161668 -0.0028098638 -2.161618e-20)
(0.026389918 -0.0028809004 -1.2320081e-20)
(0.017511858 -0.0028943128 -2.8568221e-20)
(-0.0021243139 0.0007690011 6.7075891e-20)
(-0.0099252503 0.0034385925 -1.6808166e-19)
(-0.015970188 0.0068214481 1.2915317e-20)
(-0.013536872 0.0068457259 -7.2122148e-21)
(-0.012045617 0.0069515585 3.0768529e-20)
(-0.0089944302 0.0057352565 4.1888466e-20)
(-0.007918651 0.0054753524 -1.5157674e-20)
(-0.0064943284 0.0047739098 -2.1412507e-20)
(-0.0060821508 0.0046947473 1.3407644e-20)
(-0.0053439498 0.0042790228 2.6689528e-20)
(-0.0051456044 0.0042404371 1.9748613e-20)
(-0.0047002566 0.0039506865 -1.2549589e-20)
(-0.0044978613 0.0038310695 -1.7255557e-21)
(-0.0041592834 0.003563906 1.3353012e-20)
(-0.0039558293 0.0033893296 1.3359306e-21)
(-0.0036966056 0.0031459376 -1.6506152e-21)
(-0.003574948 0.0030085696 -1.5331234e-21)
(-0.0034464191 0.0028669414 -1.8467167e-21)
(-0.0033986262 0.0027969734 8.2067086e-21)
(-0.0033576709 0.0027354294 -2.0431704e-21)
(-0.0033792656 0.0027277146 -9.8292602e-22)
(-0.0034229176 0.0027395949 -3.5018734e-22)
(-0.0035211857 0.0027969334 -2.2918286e-21)
(-0.003652263 0.0028814635 3.3933622e-21)
(-0.0038335774 0.0030067642 -2.3986394e-21)
(-0.0040515508 0.0031617939 3.6965611e-21)
(-0.0043136954 0.0033524483 -4.4200637e-22)
(-0.0046049142 0.0035670036 5.4522424e-21)
(-0.0049183515 0.003800353 3.2592389e-21)
(-0.0052195663 0.0040210523 -4.4137644e-21)
(-0.0055139683 0.0042233798 3.6703328e-21)
(-0.0058051549 0.0044069201 -7.4442369e-22)
(-0.0060882517 0.004565706 -3.1617089e-22)
(-0.012227439 -6.7137017e-06 -9.490393e-24)
(-0.011956254 -6.692039e-06 8.4555716e-24)
(-0.011685874 -6.6663312e-06 5.4687384e-28)
(-0.011416662 -6.6381012e-06 -1.5913468e-23)
(-0.011148403 -6.6087018e-06 1.4081069e-23)
(-0.010881511 -6.5777113e-06 -5.7198979e-24)
(-0.010615632 -6.545778e-06 8.8720458e-24)
(-0.010351333 -6.5095511e-06 -8.4513124e-24)
(-0.010088123 -6.4707675e-06 6.5598422e-24)
(-0.0098268151 -6.4278655e-06 -2.3492069e-23)
(-0.0095666878 -6.3833507e-06 3.6943106e-23)
(-0.0093088261 -6.3365584e-06 -3.9103204e-23)
(-0.0090521401 -6.2886531e-06 4.8812218e-24)
(-0.0087980972 -6.2386379e-06 2.0534189e-23)
(-0.0085451509 -6.1851834e-06 -7.2027446e-24)
(-0.0082953444 -6.1292818e-06 5.1428644e-24)
(-0.0080465105 -6.0696425e-06 -2.4833621e-23)
(-0.0078014497 -6.0078789e-06 2.0897308e-23)
(-0.0075571397 -5.9418805e-06 2.1195906e-23)
(-0.0073174032 -5.8728425e-06 -2.5246186e-23)
(-0.0070780518 -5.7985563e-06 7.3820225e-24)
(-0.0068443381 -5.7194551e-06 -5.596282e-26)
(-0.0066105097 -5.6348585e-06 -4.0315819e-24)
(-0.006383721 -5.5435078e-06 5.4355821e-24)
(-0.0061561322 -5.4462539e-06 -7.5014621e-24)
(-0.0059374371 -5.3396088e-06 2.429961e-23)
(-0.0057169893 -5.2266252e-06 -2.6647598e-23)
(-0.0055079385 -5.1006294e-06 3.6109004e-24)
(-0.0052958774 -4.9687577e-06 -9.0434304e-26)
(-0.0050985056 -4.8199807e-06 -2.2808118e-24)
(-0.0048964195 -4.664302e-06 2.4994367e-23)
(-0.0047133843 -4.4842786e-06 -2.7177188e-23)
(-0.0045234134 -4.2933571e-06 2.1040176e-23)
(-0.0043583577 -4.067779e-06 -1.7669133e-23)
(-0.0041835831 -3.8257236e-06 -9.8209409e-26)
(-0.0040416162 -3.5348432e-06 2.3638407e-23)
(-0.0038865345 -3.2224006e-06 -2.7886166e-23)
(-0.003774703 -2.8413801e-06 2.3602058e-23)
(-0.0036457567 -2.4341878e-06 -2.6134051e-23)
(-0.003573521 -1.9284989e-06 2.4064213e-23)
(-0.0034798039 -1.4008262e-06 5.7703374e-24)
(-0.0034591674 -7.3237376e-07 -1.0206819e-23)
(-0.0034126156 -9.081478e-08 6.0550559e-24)
(-0.0034555516 6.1916612e-07 -2.6756426e-23)
(-0.003458185 9.5707889e-07 -4.0247384e-23)
(-0.0035426728 -3.8971169e-05 2.1044545e-20)
(-0.0036054433 -0.00018459135 7.637072e-20)
(-0.0036169289 -0.00033373368 1.0028674e-19)
(-0.0036424843 -0.00048553238 1.5138715e-19)
(-0.0035655623 -0.0006200257 2.6555834e-19)
(-0.0034997231 -0.00074937986 4.7843186e-19)
(-0.00334101 -0.00084824755 -7.0229493e-19)
(-0.0031844867 -0.00093369101 -6.9069588e-19)
(-0.0029490311 -0.00097916109 8.5294728e-20)
(-0.0027054979 -0.001002074 3.5853517e-19)
(-0.0023942369 -0.00097766158 1.268375e-19)
(-0.0020648121 -0.00092093414 2.1736149e-19)
(-0.0016740467 -0.00080979106 -7.6652888e-19)
(-0.0012544367 -0.00065520147 9.2374526e-19)
(-0.00077282734 -0.0004366865 1.8734442e-18)
(-0.00024629952 -0.00015878485 -9.3985757e-19)
(0.00036007388 0.00020277037 2.5067671e-18)
(0.0010156654 0.00063042228 1.128542e-18)
(0.0017435071 0.0011378053 -1.0203188e-18)
(0.0025230062 0.0017098808 1.1535964e-18)
(0.003372598 0.0023567955 6.3690246e-19)
(0.0042763146 0.0030643795 -1.0051973e-18)
(0.0052485597 0.0038393076 4.5433303e-19)
(0.0062731704 0.0046652629 1.5218789e-18)
(0.0073591907 0.0055439248 2.2712006e-18)
(0.0084863979 0.006454025 -1.2068808e-18)
(0.0096547454 0.0073888018 1.1662903e-18)
(0.010820043 0.008309376 -5.2890331e-22)
(0.011935967 0.0091934802 -1.6165805e-19)
(0.013024373 0.01006967 -3.3086203e-19)
(0.014098473 0.010951098 4.315438e-19)
(0.015146336 0.011830554 8.4298397e-19)
(0.016190965 0.01273062 1.388039e-19)
(0.017044034 0.013501506 1.3031963e-18)
(0.017971197 0.014350733 5.3034312e-19)
(0.019005504 0.015311282 -6.3605091e-19)
(0.020163808 0.01640073 -4.6453217e-19)
(0.02147421 0.017648529 1.0828885e-18)
(0.022928934 0.019053705 8.771847e-19)
(0.024629193 0.02070693 7.8423368e-19)
(0.026650919 0.022662495 4.364654e-19)
(0.02932331 0.025102678 -1.2520587e-19)
(0.032320114 0.027672205 4.6256049e-19)
(0.035955613 0.030593103 -5.3905247e-19)
(0.039939874 0.033541138 -3.9101036e-19)
(0.044844584 0.036909088 -9.1468054e-20)
(0.050241566 0.040203083 9.015199e-19)
(0.057116764 0.044053497 -3.0074259e-19)
(0.064738354 0.047610475 -8.2173e-20)
(0.074866518 0.051802589 -2.7737532e-20)
(0.085903632 0.05494725 5.1293225e-20)
(0.099808571 0.057718213 -7.569001e-20)
(0.11270788 0.057096997 3.3623386e-19)
(0.12576866 0.053370761 4.7236257e-19)
(0.12799084 0.042924664 3.411725e-19)
(0.12286169 0.031119888 -2.4375164e-19)
(0.10736171 0.019464411 -5.3140551e-19)
(0.092537002 0.011165341 -1.3302041e-19)
(0.070151796 0.0050432258 -2.4170492e-19)
(0.058941169 0.0020654247 -5.1989611e-20)
(0.038581207 0.00041770869 -1.2435555e-20)
(0.039131596 -0.00010185362 4.3203149e-22)
(0.022441602 -9.6307576e-05 -1.7091563e-20)
(0.052154773 0.00010144898 -6.6221864e-22)
(0.042904801 8.1240836e-05 3.1893688e-21)
(0.06396382 -0.00049577558 9.9876877e-21)
(0.052766849 -0.0015518253 1.208001e-22)
(0.056376616 -0.0036233874 2.1933782e-20)
(0.035305299 -0.0037782787 6.984898e-20)
(0.023622007 -0.0038151463 3.3267713e-21)
(-0.0016170248 0.00080680013 -4.3674378e-20)
(-0.012233975 0.0043001266 -3.2663279e-21)
(-0.020361106 0.008711674 -1.170396e-20)
(-0.017457142 0.0088143955 -1.9829335e-20)
(-0.015579647 0.0089717302 -1.4627806e-20)
(-0.011687275 0.0074355739 -3.3382402e-20)
(-0.010286097 0.0071006759 -1.6500312e-20)
(-0.0084533063 0.0062057544 -3.958978e-22)
(-0.0079100726 0.0060997197 1.702291e-21)
(-0.0069590581 0.0055677487 -4.6075503e-20)
(-0.0066960781 0.0055145347 -4.8252219e-21)
(-0.006122231 0.0051424978 4.0915806e-21)
(-0.0058574699 0.0049860034 1.3908289e-20)
(-0.0054209268 0.0046419752 7.7225516e-22)
(-0.0051565923 0.0044154304 7.3841682e-21)
(-0.0048224921 0.0041019283 -3.3569532e-21)
(-0.004664493 0.003923927 5.7046491e-21)
(-0.0044993741 0.0037417246 1.8392188e-21)
(-0.004438004 0.0036516474 -7.179397e-21)
(-0.0043865743 0.0035733493 -1.1234001e-21)
(-0.0044156904 0.0035644284 -1.6841454e-21)
(-0.0044740537 0.0035814364 -2.9075123e-22)
(-0.0046028931 0.0036571508 -8.7617163e-22)
(-0.0047745956 0.0037683857 3.3414117e-21)
(-0.0050111456 0.0039322753 1.5780811e-21)
(-0.0052952577 0.0041347332 -2.8850361e-21)
(-0.005636233 0.0043830351 6.7232102e-22)
(-0.0060146815 0.004662069 -1.4073331e-21)
(-0.006421542 0.0049649466 -3.8928674e-21)
(-0.0068128334 0.0052514622 -8.0651276e-23)
(-0.0071951717 0.0055140089 -4.9792371e-21)
(-0.007573177 0.0057519379 -2.6044404e-21)
(-0.0079406548 0.005957586 1.7619843e-21)
(-0.015780522 -1.1454473e-05 -1.3352739e-23)
(-0.015427846 -1.1417658e-05 1.3477007e-23)
(-0.015076221 -1.1374737e-05 -4.639938e-24)
(-0.014726101 -1.1327768e-05 -4.7309517e-24)
(-0.014377224 -1.1278415e-05 5.7013166e-24)
(-0.014030113 -1.122656e-05 -4.8113331e-24)
(-0.013684335 -1.1172185e-05 8.2284165e-24)
(-0.013340602 -1.1112203e-05 5.9408212e-24)
(-0.01299831 -1.1047718e-05 -2.7102996e-23)
(-0.012658473 -1.0977194e-05 1.7296051e-23)
(-0.012320197 -1.090298e-05 -1.9433738e-23)
(-0.011984842 -1.0825421e-05 6.39464e-24)
(-0.011651056 -1.0744378e-05 1.7766251e-23)
(-0.011320677 -1.066089e-05 -3.0127563e-24)
(-0.010991782 -1.0571106e-05 -1.707668e-23)
(-0.010666929 -1.0478329e-05 6.6408094e-24)
(-0.010343417 -1.0377705e-05 1.8352215e-23)
(-0.010024755 -1.0275138e-05 -2.0432913e-23)
(-0.0097071706 -1.0163809e-05 1.860298e-23)
(-0.0093954585 -1.0049542e-05 -2.952083e-23)
(-0.0090843819 -9.9240721e-06 1.8788169e-23)
(-0.0087805319 -9.7940156e-06 1.5925143e-23)
(-0.0084767072 -9.6511235e-06 -3.2120232e-26)
(-0.0081818927 -9.5015777e-06 -3.0277285e-23)
(-0.0078862623 -9.3367645e-06 1.9317168e-23)
(-0.0076020004 -9.1629612e-06 1.6359564e-23)
(-0.0073157473 -8.9704134e-06 -1.8411865e-23)
(-0.0070440476 -8.7646901e-06 1.0535618e-23)
(-0.0067687988 -8.5370847e-06 -3.3132915e-24)
(-0.0065122952 -8.2929471e-06 -1.1290486e-23)
(-0.0062501315 -8.0210689e-06 -1.8964527e-23)
(-0.0060122749 -7.7245653e-06 -3.5523129e-24)
(-0.0057660018 -7.3885996e-06 2.0176815e-23)
(-0.0055515163 -7.0163236e-06 -1.1606768e-23)
(-0.0053251583 -6.588692e-06 2.0432789e-23)