/*--------------------------------*- C++ -*----------------------------------*\
  =========                 |
  \\      /  F ield         | OpenFOAM: The Open Source CFD Toolbox
   \\    /   O peration     | Website:  https://openfoam.org
    \\  /    A nd           | Version:  7
     \\/     M anipulation  |
\*---------------------------------------------------------------------------*/
FoamFile
{
    version     2.0;
    format      ascii;
    class       volScalarField;
    location    "20000";
    object      epsilon;
}
// * * * * * * * * * * * * * * * * * * * * * * * * * * * * * * * * * * * * * //

dimensions      [0 2 -3 0 0 0 0];

internalField   nonuniform List<scalar> 
32000
(
0.00037987127
0.00042484648
0.00039025442
0.00029883503
0.00018131131
7.4922775e-05
1.9203036e-05
3.0846579e-06
1.8303181e-06
1.7365302e-06
1.5196865e-06
1.3609999e-06
1.2716493e-06
1.2176237e-06
1.1713159e-06
1.1188646e-06
1.0524888e-06
1.0157562e-06
1.0066527e-06
1.0256253e-06
1.0697081e-06
1.1406643e-06
1.2406547e-06
1.3757816e-06
1.5505e-06
1.7704802e-06
2.0365674e-06
2.3326063e-06
2.6596358e-06
3.0099745e-06
3.34382e-06
3.6638163e-06
3.9823916e-06
4.2960169e-06
4.5934415e-06
4.8689835e-06
5.1402499e-06
5.4238248e-06
5.6998278e-06
5.9476908e-06
6.1539706e-06
6.292571e-06
6.3509568e-06
6.3054505e-06
6.2221895e-06
6.1707954e-06
6.6967219e-06
9.1667358e-06
1.1193905e-05
1.3223668e-05
1.5197118e-05
1.7103884e-05
1.9025778e-05
2.0884679e-05
2.2765765e-05
2.4614109e-05
2.6477905e-05
2.8329981e-05
3.0191129e-05
3.2048906e-05
3.3908699e-05
3.5764553e-05
3.7615317e-05
3.9455973e-05
4.1283198e-05
4.3091908e-05
4.4877654e-05
4.6635599e-05
4.8361382e-05
5.0050661e-05
5.169938e-05
5.3303479e-05
5.4858981e-05
5.6362487e-05
5.7811132e-05
5.9202693e-05
6.053395e-05
6.1801815e-05
6.3004466e-05
6.414006e-05
6.5206985e-05
6.6204241e-05
6.7130543e-05
6.7985605e-05
6.8768382e-05
6.947915e-05
7.0118372e-05
7.0686145e-05
7.1183617e-05
7.1611762e-05
7.1971743e-05
7.2265413e-05
7.249399e-05
7.2660124e-05
7.2767285e-05
7.2810091e-05
7.2797255e-05
7.2726942e-05
7.2599081e-05
7.2428051e-05
7.2224991e-05
7.1967048e-05
7.1662516e-05
7.1320332e-05
7.0939368e-05
7.0522986e-05
7.0073447e-05
6.9592175e-05
6.9081179e-05
6.8542084e-05
6.7975935e-05
6.7384192e-05
6.6768067e-05
6.612923e-05
6.5469512e-05
6.4790559e-05
6.4094378e-05
6.3382565e-05
6.2656414e-05
6.1917294e-05
6.1166142e-05
6.0402999e-05
5.9628089e-05
5.8841978e-05
5.8044687e-05
5.7237558e-05
5.642074e-05
5.5594147e-05
5.4758605e-05
5.3913962e-05
5.305972e-05
5.2195699e-05
5.1319822e-05
5.0432703e-05
4.9531777e-05
4.8617255e-05
4.7685305e-05
4.67376e-05
4.5767564e-05
4.4778891e-05
4.3759819e-05
4.2717499e-05
4.1631713e-05
4.0515406e-05
3.9333988e-05
3.8112311e-05
3.6793098e-05
3.5420109e-05
3.3901427e-05
3.2307344e-05
3.050005e-05
2.8560458e-05
2.6200835e-05
2.3447174e-05
2.3140253e-05
2.388842e-05
2.5186232e-05
2.6905395e-05
2.8937253e-05
3.1296602e-05
3.4010597e-05
3.7136563e-05
4.0718594e-05
4.4843065e-05
4.9682751e-05
5.5397664e-05
6.1713979e-05
6.8489057e-05
7.5662815e-05
8.3166112e-05
9.0900321e-05
9.8747403e-05
0.00010674902
0.00011386825
0.00012003738
0.00012554335
0.0001323196
0.00013986362
0.00014836132
0.00015821636
0.00016981324
0.00018417698
0.00020104518
0.00022714591
0.00026244683
0.00030315883
0.00034935554
0.0004075811
0.00048221748
0.00057634519
0.00068624884
0.00079639074
0.00085716205
0.00083659228
0.00072763637
0.00060347409
0.0004589835
0.00038745292
0.00031138091
0.00033089735
0.0020701714
0.0023148242
0.0021263085
0.0016284794
0.00098866848
0.0004091691
0.00010512432
1.6740905e-05
9.6512527e-06
9.1067772e-06
7.916466e-06
7.043653e-06
6.5534177e-06
6.2612884e-06
6.0159546e-06
5.7410695e-06
5.3922489e-06
5.2056045e-06
5.1686517e-06
5.2835379e-06
5.534227e-06
5.9302995e-06
6.4835083e-06
7.2271751e-06
8.1856133e-06
9.3899314e-06
1.0845433e-05
1.2464856e-05
1.4254159e-05
1.6172433e-05
1.8002288e-05
1.9756768e-05
2.1503771e-05
2.3224627e-05
2.4857995e-05
2.6371884e-05
2.7861152e-05
2.9416722e-05
3.093108e-05
3.2291736e-05
3.3425132e-05
3.4188606e-05
3.4513325e-05
3.4269404e-05
3.3817492e-05
3.353737e-05
3.6401812e-05
4.9858483e-05
6.0904249e-05
7.196761e-05
8.272377e-05
9.3116651e-05
0.00010359202
0.00011372406
0.00012397714
0.00013405174
0.00014421064
0.00015430564
0.00016445012
0.0001745762
0.00018471328
0.00019482886
0.00020491667
0.00021494935
0.00022490879
0.00023476729
0.00024450054
0.00025408226
0.00026348861
0.00027269597
0.0002816822
0.00029042519
0.00029890326
0.00030709789
0.00031499346
0.00032257787
0.00032983351
0.0003367436
0.0003432982
0.0003494873
0.00035530207
0.0003607371
0.0003657854
0.00037044538
0.00037471135
0.00037858485
0.00038206837
0.00038516246
0.00038787337
0.00039020645
0.000392168
0.00039376814
0.0003950135
0.00039591854
0.00039650216
0.00039673504
0.00039666465
0.00039628102
0.00039558375
0.00039465123
0.00039354414
0.00039213794
0.00039047783
0.00038861251
0.00038653585
0.00038426619
0.00038181581
0.00037919249
0.00037640718
0.00037346875
0.00037038286
0.00036715752
0.00036379928
0.00036031727
0.00035672147
0.00035302085
0.00034922634
0.00034534664
0.00034138879
0.00033736028
0.00033326619
0.00032910676
0.00032488319
0.00032059859
0.00031625306
0.00031185392
0.00030740196
0.00030289674
0.00029834276
0.00029373916
0.00028908325
0.00028437406
0.00027960025
0.00027476518
0.00026985487
0.00026487044
0.00025979106
0.0002546258
0.00024933883
0.00024395034
0.00023839615
0.0002327153
0.00022679753
0.00022071351
0.00021427462
0.00020761641
0.00020042658
0.00019294387
0.00018466706
0.00017597959
0.00016613003
0.00015556016
0.00014270784
0.00012773745
0.0001261015
0.00013019196
0.00013727706
0.00014666157
0.00015775129
0.0001706288
0.0001854424
0.00020250444
0.0002220565
0.00024457226
0.00027099394
0.0003021809
0.00033663304
0.00037358025
0.00041269624
0.00045360245
0.00049575972
0.00053852744
0.00058211045
0.0006208579
0.00065444115
0.00068447316
0.00072146636
0.0007626345
0.00080901782
0.00086282096
0.00092615455
0.001004593
0.0010968355
0.0012395517
0.0014322775
0.0016543765
0.0019064659
0.0022242853
0.0026315507
0.0031447566
0.0037431337
0.0043412213
0.0046691872
0.0045552855
0.0039620053
0.003286661
0.0025003735
0.0021113018
0.0016969684
0.001803472
0.0050579484
0.0056542462
0.0051951491
0.0039809408
0.002419149
0.0010032197
0.00025888991
4.153947e-05
2.3625051e-05
2.2253224e-05
1.9355441e-05
1.7220728e-05
1.6019549e-05
1.5304997e-05
1.4706832e-05
1.4037534e-05
1.3184985e-05
1.2725735e-05
1.2631969e-05
1.2909471e-05
1.3519021e-05
1.4483701e-05
1.5831961e-05
1.7645074e-05
1.9982454e-05
2.292034e-05
2.6473354e-05
3.0428792e-05
3.4800813e-05
3.9491894e-05
4.396972e-05
4.8262887e-05
5.2537955e-05
5.6750897e-05
6.0751989e-05
6.446071e-05
6.8106589e-05
7.1913933e-05
7.5622318e-05
7.8956082e-05
8.1734751e-05
8.3609044e-05
8.4409567e-05
8.3818114e-05
8.2716346e-05
8.2036703e-05
8.9037289e-05
0.00012191092
0.00014889066
0.00017592824
0.00020221365
0.00022761228
0.00025321269
0.00027797444
0.00030303248
0.00032765457
0.00035248304
0.00037715549
0.00040194907
0.00042669769
0.00045147318
0.00047619608
0.00050085095
0.00052537092
0.00054971164
0.00057380536
0.00059759271
0.00062100932
0.00064399699
0.00066649795
0.00068845811
0.0007098234
0.00073054079
0.00075056508
0.00076985806
0.00078839016
0.00080611743
0.00082299976
0.00083901287
0.00085413238
0.00086833678
0.00088161284
0.00089394347
0.00090532492
0.00091574328
0.00092520232
0.00093370824
0.00094126243
0.00094788017
0.00095357453
0.00095836111
0.00096226454
0.00096530109
0.00096750609
0.00096892592
0.00096948901
0.00096931092
0.00096836776
0.00096665841
0.00096437445
0.00096166426
0.00095822341
0.00095416239
0.00094960025
0.00094452198
0.00093897236
0.00093298143
0.00092656825
0.00091975947
0.00091257685
0.0009050342
0.00089715101
0.0008889434
0.00088043355
0.00087164591
0.0008626024
0.00085332966
0.00084384896
0.00083417752
0.00082433358
0.00081432955
0.00080416601
0.0007938459
0.00078337684
0.00077275899
0.0007620103
0.00075113261
0.00074012492
0.00072899816
0.00071775023
0.00070637461
0.00069486883
0.00068320524
0.00067139206
0.00065939506
0.00064721706
0.00063480713
0.00062218747
0.00060927043
0.00059610549
0.00058253573
0.0005686567
0.0005541988
0.00053933502
0.00052360418
0.00050733793
0.00048977278
0.00047149274
0.00045127233
0.00043004976
0.00040598699
0.00038016666
0.0003487888
0.0003123268
0.000308436
0.00031846608
0.00033581174
0.00035878763
0.00038593598
0.00041746425
0.0004537348
0.00049551033
0.00054338425
0.00059852148
0.0006632217
0.00073954727
0.00082381461
0.00091416373
0.0010097993
0.0011097921
0.0012128202
0.0013173259
0.0014237557
0.0015183173
0.0016003168
0.0016738132
0.0017644075
0.0018651817
0.0019787488
0.0021105059
0.0022656478
0.0024577654
0.0026839846
0.0030338378
0.0035053722
0.0040485554
0.0046650954
0.0054425693
0.0064384504
0.0076923158
0.0091523996
0.01060887
0.011406158
0.011132258
0.0096873505
0.008038688
0.0061160789
0.0051640969
0.0041500078
0.0044086128
0.0089111556
0.0099595544
0.0091563974
0.0070280281
0.0042773594
0.0017779856
0.00046068273
7.4408897e-05
4.1699718e-05
3.9203939e-05
3.4122614e-05
3.0361215e-05
2.8239882e-05
2.6979942e-05
2.5928593e-05
2.4753755e-05
2.3251609e-05
2.2436656e-05
2.2264909e-05
2.2747711e-05
2.3815983e-05
2.5509757e-05
2.7878695e-05
3.1065705e-05
3.5175463e-05
4.0342642e-05
4.6595933e-05
5.3561601e-05
6.1264115e-05
6.9536325e-05
7.7437849e-05
8.5012757e-05
9.2555697e-05
9.9992156e-05
0.00010705898
0.00011361065
0.00012004694
0.00012676582
0.00013331304
0.00013920189
0.00014411276
0.00014743034
0.00014885376
0.00014782536
0.00014589774
0.00014474433
0.0001571296
0.00021508984
0.00026259394
0.0003102534
0.00035658013
0.00040134871
0.00044647318
0.0004901219
0.0005342944
0.00057770014
0.00062147078
0.00066496736
0.00070867778
0.00075230918
0.00079598767
0.00083957284
0.00088303722
0.00092626252
0.00096917039
0.001011641
0.0010535696
0.0010948424
0.001135357
0.0011750112
0.0012137097
0.0012513572
0.00128786
0.0013231385
0.0013571256
0.0013897684
0.0014209889
0.0014507175
0.0014789117
0.0015055288
0.0015305308
0.0015538948
0.001575591
0.0015956127
0.0016139359
0.0016305675
0.0016455184
0.0016587916
0.0016704143
0.0016804097
0.0016888054
0.0016956452
0.001700958
0.0017048058
0.0017072714
0.0017082297
0.001707881
0.0017061864
0.0017031433
0.001699089
0.0016942852
0.0016881959
0.0016810156
0.0016729538
0.0016639844
0.0016541864
0.0016436124
0.0016322962
0.0016202847
0.001607616
0.0015943147
0.001580415
0.0015659452
0.0015509446
0.001535456
0.0015195179
0.0015031772
0.0014864714
0.0014694306
0.0014520871
0.0014344624
0.0014165576
0.0013983781
0.0013799368
0.0013612343
0.0013423019
0.0013231429
0.0013037556
0.0012841589
0.0012643493
0.0012443153
0.0012240524
0.0012035119
0.0011827082
0.0011615811
0.0011401355
0.0011182816
0.0010960587
0.0010733123
0.0010501297
0.0010262342
0.0010017945
0.00097633555
0.00095016229
0.00092246235
0.00089382026
0.00086289094
0.00083070386
0.0007950997
0.00075773264
0.00071536272
0.00066990246
0.00061468831
0.00055069444
0.00054401659
0.00056173469
0.00059234013
0.00063288655
0.00068079507
0.00073644027
0.00080045928
0.00087419403
0.00095869575
0.0010560281
0.0011702317
0.0013048668
0.0014534217
0.0016126624
0.0017811917
0.0019573664
0.0021388532
0.0023229275
0.0025102814
0.0026766731
0.0028210787
0.0029508367
0.00311084
0.003288743
0.0034892746
0.003721954
0.0039960013
0.0043352924
0.0047352967
0.0053535091
0.00618463
0.007142804
0.0082299425
0.0096012829
0.011357159
0.013566295
0.016136784
0.018699784
0.02011347
0.019668288
0.017149888
0.014243568
0.010834455
0.0091388225
0.0073363168
0.0077786094
0.013468605
0.015052659
0.013848516
0.010668942
0.0065094843
0.0027134399
0.00070537532
0.00011446217
6.309281e-05
5.9192372e-05
5.1563473e-05
4.5888166e-05
4.2677817e-05
4.0773545e-05
3.9189477e-05
3.74215e-05
3.5153196e-05
3.3913625e-05
3.3644234e-05
3.4364191e-05
3.5969324e-05
3.8519061e-05
4.2087809e-05
4.6890942e-05
5.3086591e-05
6.088052e-05
7.0312474e-05
8.0830928e-05
9.2465221e-05
0.00010497257
0.00011692728
0.0001283854
0.00013979391
0.00015104522
0.00016174385
0.00017166608
0.00018140791
0.00019157154
0.00020147911
0.00021039471
0.00021783257
0.00022286675
0.00022503872
0.00022352222
0.00022065827
0.00021908017
0.00023799124
0.00032576401
0.00039744795
0.00046951821
0.00053955103
0.00060724298
0.0006754719
0.00074147758
0.00080827776
0.0008739234
0.00094012241
0.0010059088
0.0010720181
0.001138007
0.0012040644
0.0012699771
0.0013357021
0.0014010601
0.001465931
0.0015301331
0.0015935072
0.0016558811
0.0017170995
0.0017770076
0.0018354613
0.0018923163
0.0019474311
0.0020006856
0.0020519782
0.0021012285
0.0021483193
0.0021931464
0.0022356461
0.0022757545
0.0023134151
0.002348594
0.0023812471
0.002411365
0.0024389126
0.002463901
0.0024863477
0.0025062586
0.0025236751
0.0025386336
0.0025511766
0.0025613707
0.0025692608
0.0025749395
0.0025785355
0.002579864
0.0025792153
0.0025765421
0.0025718375
0.0025656105
0.0025582575
0.0025489704
0.0025380414
0.002525787
0.0025121687
0.0024973051
0.0024812759
0.0024641318
0.002445944
0.0024267696
0.0024066457
0.0023856238
0.0023637468
0.0023410735
0.0023176683
0.0022935893
0.0022689072
0.0022436777
0.0022179466
0.0021917619
0.0021651563
0.0021381309
0.0021106937
0.0020828643
0.0020546431
0.0020260772
0.0019971715
0.001967923
0.0019383602
0.0019084777
0.0018782575
0.0018476932
0.0018167112
0.0017853331
0.0017534677
0.0017211225
0.001688162
0.0016546454
0.0016203393
0.0015853755
0.001549337
0.0015124776
0.0014740815
0.0014346079
0.0013928323
0.0013496355
0.0013029899
0.0012544468
0.0012007507
0.0011443955
0.001080495
0.0010119374
0.00092871302
0.00083251244
0.00082263537
0.00084941348
0.00089566271
0.00095695813
0.0010293913
0.0011135366
0.0012103536
0.001321863
0.0014496631
0.0015968777
0.0017695845
0.0019730363
0.0021973936
0.0024378436
0.002692284
0.0029582289
0.0032321575
0.0035099993
0.0037926644
0.0040436935
0.004261853
0.0044584336
0.0047007917
0.0049701451
0.0052738169
0.0056261821
0.0060412731
0.0065550035
0.0071613175
0.0080974493
0.0093515026
0.010801487
0.012444678
0.014518258
0.01717179
0.020507885
0.024388012
0.028261508
0.030438621
0.029887835
0.026184775
0.021802718
0.016583405
0.013958026
0.011175761
0.011798352
0.018709177
0.020914883
0.019246215
0.014925956
0.0091431686
0.0038250404
0.00099650591
0.00016196784
8.7586728e-05
8.1978381e-05
7.1486518e-05
6.3642057e-05
5.9186931e-05
5.6546471e-05
5.4356276e-05
5.1914222e-05
4.8772306e-05
4.7042785e-05
4.6655811e-05
4.7641195e-05
4.9855081e-05
5.3378298e-05
5.8313339e-05
6.495803e-05
7.3534992e-05
8.4325158e-05
9.7376651e-05
0.00011195358
0.0001280848
0.00014544249
0.00016204319
0.00017794814
0.00019377987
0.00020939686
0.00022425566
0.00023804414
0.00025157579
0.00026568143
0.00027943406
0.00029181546
0.00030214724
0.00030915832
0.00031220757
0.00031019652
0.00030636007
0.00030460142
0.00033132183
0.00045364467
0.00055286169
0.00065296578
0.00075018506
0.00084418363
0.00093892011
0.0010305838
0.0011233503
0.0012145199
0.0013064548
0.001397815
0.0014896151
0.0015812388
0.0016729438
0.0017644318
0.0018556405
0.0019463179
0.0020362958
0.0021253195
0.0022131669
0.0022995989
0.0023843993
0.0024673536
0.0025482614
0.0026269232
0.0027031438
0.0027767571
0.0028476234
0.0029156293
0.0029806161
0.0030424416
0.00310102
0.0031562649
0.0032081002
0.0032564823
0.003301352
0.0033426983
0.0033804768
0.0034147043
0.0034454073
0.0034725978
0.0034963354
0.0035166721
0.0035336698
0.0035474218
0.003557993
0.003565509
0.0035701569
0.0035716925
0.0035704845
0.0035664978
0.0035597154
0.0035508388
0.0035404207
0.0035273455
0.0035120144
0.0034948649
0.0034758453
0.0034551197
0.0034327967
0.0034089474
0.0033836695
0.0033570413
0.0033291148
0.0032999598
0.0032696361
0.003238224
0.0032058123
0.0031724802
0.0031383249
0.0031034226
0.0030678361
0.0030316312
0.0029948517
0.0029574993
0.0029195845
0.0028811335
0.0028421468
0.0028026887
0.002762765
0.0027223718
0.0026815474
0.0026402838
0.0025985562
0.0025563548
0.0025135782
0.0024702553
0.0024262601
0.0023816027
0.0023360957
0.0022898203
0.0022424545
0.0021941792
0.0021444197
0.0020935242
0.0020405066
0.0019859975
0.0019283101
0.0018686547
0.0018042381
0.0017371929
0.0016630325
0.0015851891
0.0014969248
0.0014022195
0.0012873034
0.0011548151
0.0011412901
0.0011782971
0.0012423092
0.0013272073
0.0014275693
0.0015441901
0.0016783956
0.0018329699
0.0020101449
0.0022142363
0.0024536149
0.0027353603
0.0030458941
0.0033786591
0.0037307548
0.0040987435
0.0044777712
0.0048622904
0.0052533879
0.0056008985
0.005903635
0.0061772862
0.0065143069
0.0068887157
0.0073108877
0.007800689
0.0083777146
0.0090914133
0.0099344299
0.011233887
0.012965512
0.014979664
0.017256156
0.020129527
0.023801325
0.028410511
0.033763637
0.039113567
0.042200673
0.041708486
0.036854638
0.03087278
0.023523721
0.01975457
0.01574905
0.016511036
0.02467007
0.02758718
0.025358697
0.019871149
0.01225102
0.0051521087
0.0013431699
0.00021781984
0.00011515801
0.00010749049
9.3853009e-05
8.3605598e-05
7.7755166e-05
7.4288274e-05
7.1419537e-05
6.822293e-05
6.4102622e-05
6.1818155e-05
6.1293064e-05
6.257142e-05
6.5465528e-05
7.0079411e-05
7.654711e-05
8.5262736e-05
9.6516837e-05
0.0001106672
0.00012778409
0.00014690519
0.00016810923
0.00019093488
0.00021277589
0.00023368813
0.00025449364
0.00027501788
0.00029455701
0.00031270414
0.00033050805
0.00034904588
0.00036711885
0.00038339767
0.00039698529
0.00040624279
0.00041032372
0.00040788916
0.00040316945
0.00040177713
0.00043787855
0.0005999029
0.00072988719
0.00086170402
0.00098960047
0.0011132918
0.0012379207
0.0013585139
0.001480536
0.0016004487
0.0017213396
0.0018414497
0.0019620988
0.0020824746
0.0022029079
0.002323001
0.0024426672
0.0025615711
0.0026794883
0.0027960802
0.0029110576
0.0030241045
0.0031349384
0.00324328
0.003348868
0.0034514442
0.0035507553
0.0036465879
0.0037387613
0.0038271244
0.0039114803
0.0039916503
0.0040675285
0.0041390085
0.0042059965
0.0042684419
0.004326274
0.0043794843
0.0044280211
0.0044719122
0.0045111972
0.0045458992
0.0045761
0.0046018731
0.0046233035
0.0046405157
0.0046536
0.0046627156
0.0046681187
0.0046695276
0.0046673397
0.0046615799
0.0046522068
0.0046401307
0.0046260789
0.004608604
0.0045882198
0.004565497
0.004540371
0.0045130531
0.0044836839
0.0044523567
0.0044191969
0.0043843053
0.0043477499
0.0043096204
0.0042699929
0.0042289719
0.0041866703
0.0041431913
0.0040986589
0.0040531701
0.0040068065
0.0039596509
0.0039117599
0.0038631344
0.0038137871
0.0037637513
0.0037130263
0.0036616943
0.003609761
0.0035572215
0.0035041235
0.0034504561
0.0033961856
0.0033412984
0.003285663
0.003229314
0.0031720885
0.0031139978
0.0030547981
0.0029945932
0.002932965
0.0028701451
0.0028053891
0.0027391439
0.002670132
0.0025991641
0.0025240549
0.002446363
0.0023624691
0.002275123
0.0021785067
0.0020770529
0.0019620138
0.001838535
0.0016887428
0.0015164454
0.0014986928
0.0015468612
0.0016304996
0.001741562
0.0018729586
0.0020257048
0.0022015386
0.0024040782
0.0026362599
0.0029037115
0.0032172972
0.0035859959
0.0039921827
0.0044274232
0.0048879341
0.0053692339
0.0058650238
0.0063682011
0.0068799657
0.0073352375
0.0077335709
0.008094862
0.0085388048
0.0090318225
0.0095877762
0.010232542
0.010992001
0.011930321
0.013039123
0.014743535
0.016996762
0.019643505
0.022619316
0.026372912
0.03115217
0.037126875
0.044030061
0.050908914
0.05497501
0.054778466
0.049032327
0.041549571
0.03186321
0.026761042
0.021232548
0.022067424
0.03137764
0.035068389
0.032142316
0.025570493
0.01593845
0.0067625533
0.0017618082
0.00028354437
0.00014586132
0.00013570755
0.00011867793
0.0001058192
9.8427619e-05
9.4044085e-05
9.0423185e-05
8.638898e-05
8.1186084e-05
7.8281507e-05
7.7597686e-05
7.9197829e-05
8.2846766e-05
8.8673355e-05
9.6849129e-05
0.00010787975
0.00012210992
0.00014000449
0.00016164657
0.0001857861
0.00021267279
0.00024160512
0.00026929796
0.00029578636
0.00032211751
0.00034808734
0.00037282403
0.00039582544
0.000418389
0.00044184679
0.00046470972
0.00048531538
0.00050252441
0.00051432588
0.00051965185
0.00051700685
0.00051171539
0.00051172071
0.00055935823
0.00076656281
0.00093050751
0.0010977261
0.0012597006
0.0014163336
0.0015740391
0.0017265865
0.0018808461
0.0020323641
0.002185011
0.00233657
0.002488683
0.002640321
0.0027918907
0.0029428789
0.0030931729
0.003242342
0.0033901021
0.0035360283
0.0036797555
0.0038208926
0.0039590921
0.0040940095
0.0042253258
0.0043527264
0.0044759046
0.004594604
0.0047086016
0.0048177154
0.0049217221
0.0050204156
0.0051136782
0.0052013909
0.0052834497
0.0053598069
0.0054303861
0.005495188
0.0055541627
0.0056073551
0.0056548233
0.0056966098
0.0057328239
0.0057635644
0.0057889458
0.0058091271
0.0058242287
0.0058344425
0.0058400835
0.0058409221
0.0058372396
0.005829225
0.0058167856
0.0058010385
0.0057829003
0.0057605854
0.0057347139
0.005705993
0.0056743471
0.005640033
0.0056032222
0.0055640305
0.0055226109
0.0054790851
0.0054335359
0.0053860722
0.0053367876
0.0052858078
0.0052332695
0.0051792986
0.0051240454
0.0050676269
0.0050101415
0.0049516897
0.0048923377
0.0048320865
0.0047709496
0.0047089655
0.004646132
0.0045825479
0.0045182182
0.0044531353
0.0043873561
0.004320864
0.0042536172
0.0041855957
0.0041166366
0.0040467799
0.0039758215
0.0039037738
0.0038303345
0.0037556282
0.0036791363
0.0036011404
0.0035207215
0.0034384209
0.0033526639
0.0032644352
0.0031710404
0.0030743796
0.0029699872
0.0028612243
0.0027409016
0.0026144516
0.0024710408
0.002316979
0.0021300647
0.0019154383
0.0018926497
0.0019524899
0.0020571578
0.0021964205
0.0023614216
0.0025533627
0.0027744459
0.0030291646
0.0033211994
0.0036576053
0.0040518317
0.0045147322
0.0050244927
0.0055707135
0.00614865
0.0067527101
0.0073750806
0.0080071033
0.0086499467
0.0092228273
0.0097280854
0.010187784
0.010750385
0.011375043
0.012079421
0.012895693
0.013856624
0.015041671
0.016441644
0.018583403
0.021381048
0.024714265
0.028425975
0.03309439
0.038991976
0.04629447
0.054625121
0.062825934
0.067730427
0.068058761
0.061984685
0.05350709
0.04162566
0.035162626
0.027830289
0.028670224
0.038728408
0.043145902
0.039377924
0.031974389
0.020301521
0.0087527163
0.002279153
0.00036154361
0.00017979386
0.00016660976
0.00014599031
0.00013034904
0.00012127832
0.00011588826
0.00011143935
0.00010648023
0.00010009047
9.6501557e-05
9.5639457e-05
9.7593446e-05
0.00010207801
0.0001092483
0.0001193305
0.00013292842
0.00015045337
0.00017250633
0.00019914301
0.000228799
0.00026197522
0.00029770459
0.00033188158
0.00036452093
0.00039692373
0.00042886376
0.00045930081
0.00048764524
0.00051545014
0.000544299
0.00057240156
0.00059775178
0.00061895211
0.00063364524
0.00064054157
0.00063814126
0.00063295009
0.00063608654
0.00069810439
0.00095609738
0.0011568202
0.0013627171
0.0015615668
0.0017536692
0.0019467699
0.0021333313
0.0023217082
0.0025064895
0.002692355
0.0028766156
0.0030612339
0.0032449526
0.003428263
0.0036105172
0.0037915855
0.0039709468
0.0041482528
0.0043230004
0.0044947626
0.0046630847
0.0048275676
0.0049878174
0.0051434744
0.0052941842
0.0054396043
0.0055794498
0.0057134605
0.0058414587
0.0059632114
0.0060785058
0.0061872283
0.0062892654
0.0063845166
0.0064729516
0.0065545016
0.0066291871
0.0066969726
0.006757926
0.0068121328
0.0068596634
0.006900657
0.0069352423
0.0069635656
0.0069858203
0.0070021584
0.007012805
0.0070180896
0.0070179719
0.0070124455
0.0070019382
0.0069863077
0.0069668408
0.006944641
0.0069176155
0.0068864645
0.0068520199
0.0068141983
0.0067732937
0.0067295017
0.0066829584
0.0066338375
0.006582278
0.0065283755
0.0064722526
0.0064140168
0.0063538119
0.0062917926
0.0062281044
0.0061629178
0.0060963671
0.0060285641
0.0059596228
0.0058896166
0.0058185452
0.0057464218
0.0056732867
0.0055991375
0.0055240835
0.0054481283
0.0053712613
0.005293544
0.0052149555
0.0051354425
0.0050549782
0.0049733707
0.0048906593
0.0048066026
0.0047212098
0.0046341224
0.0045454799
0.00445467
0.0043620125
0.0042664263
0.0041685285
0.0040664675
0.0039613726
0.0038500721
0.0037347605
0.0036101729
0.003480209
0.0033363691
0.0031849842
0.0030131966
0.002828359
0.0026039279
0.0023464056
0.002317486
0.0023887622
0.0025149838
0.0026834501
0.0028835473
0.0031165754
0.0033852675
0.0036949298
0.0040500775
0.0044591864
0.0049382382
0.0054997652
0.0061178773
0.0067801911
0.007480928
0.0082133496
0.008968124
0.0097351314
0.010515132
0.011211672
0.011834726
0.012402822
0.013093384
0.013860254
0.01472485
0.015725457
0.016901992
0.018348577
0.020055171
0.022645038
0.025969546
0.030005129
0.034425997
0.039948448
0.046824137
0.055185494
0.064499389
0.073435414
0.07874258
0.079694088
0.074118904
0.065643224
0.052316535
0.044808959
0.035600679
0.036413659
0.04634892
0.05123507
0.046563254
0.038782818
0.025348776
0.011237555
0.0029367216
0.00045561818
0.00021708549
0.00020014443
0.00017580695
0.00015726822
0.0001463951
0.00013991088
0.00013455571
0.00012857973
0.00012089821
0.00011656467
0.00011550769
0.0001178533
0.00012326374
0.00013193125
0.00014413435
0.00016056522
0.00018174076
0.00020839804
0.00024051266
0.00027621789
0.0003162374
0.0003595326
0.00040083659
0.00044018795
0.0004791752
0.00051756331
0.00055415404
0.00058828846
0.00062177253
0.00065642314
0.00069015123
0.00072061724
0.00074616773
0.00076416958
0.00077314309
0.00077181655
0.00076793387
0.00077684504
0.00085674784
0.0011704792
0.001409598
0.0016560249
0.0018928135
0.0021209865
0.0023496229
0.0025699372
0.0027917683
0.0030087841
0.0032264482
0.0034416362
0.0036566035
0.0038698756
0.0040820523
0.0042923542
0.0045006457
0.0047063378
0.0049090465
0.0051082192
0.0053033976
0.0054941005
0.0056799128
0.0058604288
0.0060352814
0.0062041136
0.0063665804
0.0065223964
0.0066712819
0.0068131307
0.0069477141
0.0070748455
0.0071944401
0.0073064106
0.0074106813
0.0075072563
0.0075960889
0.0076772314
0.0077506759
0.0078165194
0.0078748764
0.0079258532
0.007969617
0.0080063253
0.008036153
0.0080593199
0.0080760077
0.0080864641
0.0080909955
0.0080898006
0.0080826098
0.0080699243
0.008051683
0.0080292427
0.0080038657
0.007973231
0.007938071
0.0078993129
0.0078568664
0.0078110451
0.0077620585
0.0077100546
0.0076552177
0.0075976939
0.0075375865
0.0074750255
0.0074101239
0.0073430353
0.0072739239
0.0072029473
0.0071302868
0.0070560851
0.0069804628
0.006903541
0.0068253941
0.006746021
0.0066654308
0.0065836635
0.0065007164
0.0064167026
0.0063316179
0.0062454533
0.0061582686
0.0060700373
0.0059806955
0.0058902069
0.0057983569
0.0057051785
0.0056103991
0.0055140203
0.005415638
0.0053153952
0.0052126039
0.0051076023
0.0049991809
0.0048879976
0.0047719795
0.0046523435
0.004525534
0.0043939374
0.0042516367
0.004102906
0.0039381464
0.0037643445
0.0035668879
0.0033538828
0.0030947756
0.0027972368
0.0027608354
0.0028421112
0.0029888869
0.0031857279
0.0034204575
0.0036943063
0.0040106064
0.0043752747
0.0047938215
0.0052759198
0.0058397988
0.0064992031
0.0072246517
0.008001868
0.0088239809
0.0096831099
0.010568487
0.011468736
0.012383264
0.013202643
0.013949869
0.014634652
0.015456071
0.016369437
0.01739883
0.01858772
0.019982737
0.021690108
0.023698411
0.026706173
0.030480448
0.035155388
0.040159383
0.046328977
0.053831891
0.062702961
0.07222958
0.081008124
0.086091746
0.087544505
0.083329444
0.076164291
0.062767033
0.054948999
0.044219755
0.045031796
0.053565322
0.058452417
0.052965946
0.045395073
0.030904052
0.014319577
0.0037949052
0.00057194058
0.00025790774
0.00023619307
0.00020810671
0.00018663944
0.00017386658
0.00016620696
0.00015986567
0.00015277837
0.00014369744
0.00013856889
0.00013730622
0.00014009004
0.00014652965
0.00015688274
0.00017143084
0.00019098882
0.00021621066
0.00024794791
0.00028603794
0.00032835074
0.00037565096
0.00042736947
0.00047642161
0.00052298525
0.00056897705
0.00061417593
0.0006572507
0.00069750373
0.00073697671
0.0007776855
0.00081726742
0.00085309517
0.00088329323
0.00090508848
0.00091689406
0.00091797583
0.00091732585
0.00093565513
0.0010372973
0.0014094201
0.0016858657
0.0019715639
0.0022438817
0.0025050708
0.0027654384
0.0030152143
0.0032655803
0.0035094651
0.0037530074
0.0039927772
0.0042312544
0.0044668516
0.004700237
0.0049305835
0.0051577763
0.0053812107
0.0056005138
0.0058151409
0.006024659
0.0062286163
0.0064266366
0.006618353
0.006803441
0.0069815868
0.0071524832
0.0073158709
0.0074715122
0.0076194098
0.0077593601
0.0078912307
0.0080149848
0.0081305811
0.0082379822
0.0083372386
0.0084283372
0.0085113617
0.0085863422
0.0086533992
0.0087126755
0.00876431
0.0088084876
0.0088453859
0.0088751989
0.0088981584
0.0089144647
0.0089243715
0.0089281641
0.0089260952
0.0089181036
0.0089041587
0.008884619
0.0088607483
0.0088339127
0.0088016848
0.0087647737
0.0087241477
0.0086797165
0.008631793
0.0085805823
0.0085262364
0.0084689362
0.0084088247
0.0083460073
0.0082806071
0.0082127391
0.008142555
0.008070217
0.0079958847
0.007919738
0.0078419183
0.0077625473
0.0076817436
0.0075995798
0.00751605
0.0074311613
0.0073449448
0.0072574064
0.0071686401
0.0070786444
0.0069874062
0.0068949796
0.0068013321
0.00670639
0.0066101071
0.0065122575
0.0064128602
0.0063116232
0.0062085364
0.0061031685
0.0059956517
0.0058852537
0.0057723039
0.0056555231
0.0055355581
0.0054102154
0.0052807123
0.0051432745
0.0050003274
0.0048455622
0.0046833732
0.0045034547
0.0043130544
0.0040963393
0.0038616989
0.0035753926
0.0032457896
0.0032005005
0.0032886946
0.0034527817
0.0036744099
0.0039402983
0.0042513489
0.0046114394
0.0050269882
0.0055044266
0.0060542554
0.0066963238
0.0074447799
0.0082675052
0.0091485794
0.010080016
0.011052858
0.012055101
0.013074408
0.014106759
0.015038226
0.015906295
0.016710841
0.017655151
0.018707754
0.019893389
0.021258817
0.02285589
0.024797975
0.027071044
0.030405757
0.034488623
0.039623403
0.044975401
0.051433372
0.059031537
0.067686502
0.07654813
0.084300838
0.088630216
0.090311952
0.088001564
0.083230894
0.071418119
0.064291294
0.052864395
0.053752922
0.059625892
0.063947514
0.057893779
0.051066661
0.036564455
0.018035985
0.0049317675
0.00072092843
0.00030250726
0.00027453473
0.00024279923
0.00021849328
0.00020376617
0.00019486341
0.00018745692
0.00017916468
0.00016857416
0.00016261762
0.00016114824