/*--------------------------------*- C++ -*----------------------------------*\
  =========                 |
  \\      /  F ield         | OpenFOAM: The Open Source CFD Toolbox
   \\    /   O peration     | Website:  https://openfoam.org
    \\  /    A nd           | Version:  7
     \\/     M anipulation  |
\*---------------------------------------------------------------------------*/
FoamFile
{
    version     2.0;
    format      ascii;
    class       volScalarField;
    location    "20000";
    object      I4;
}
// * * * * * * * * * * * * * * * * * * * * * * * * * * * * * * * * * * * * * //

dimensions      [0 0 0 0 0 0 0];

internalField   nonuniform List<scalar> 
32000
(
0.00010718458
0.00066425197
-0.00037297962
0.00027303122
-0.0001752758
0.005993001
0.0023401936
0.0013765532
0.00096240011
0.0008668535
0.00064263268
0.00058948136
0.0005647142
0.00055133961
0.00052682898
0.00047559321
0.00037581637
0.00027020878
0.00018792188
9.7945635e-05
2.9430843e-05
-2.2494385e-05
-5.5795573e-05
-5.8141982e-05
-4.1245882e-05
3.9368925e-06
6.3728132e-05
0.00011636226
0.00015960926
0.00019884786
0.00022953392
0.00025192028
0.00026315291
0.00026033897
0.0002384831
0.00019857094
0.00015497576
0.00011880212
7.5806067e-05
3.39679e-05
-1.1665717e-05
-4.6755441e-05
-9.0320149e-05
-7.736051e-05
-0.00012809655
4.1661085e-05
-0.00024633542
-5.7339285e-05
-9.8250825e-05
-5.5641554e-05
-6.5260099e-05
-5.1689598e-05
-5.3639461e-05
-4.8595134e-05
-4.8663283e-05
-4.6502666e-05
-4.6115889e-05
-4.4977962e-05
-4.4456745e-05
-4.3656703e-05
-4.305446e-05
-4.2321338e-05
-4.162651e-05
-4.0846336e-05
-4.0040968e-05
-3.9161256e-05
-3.8232537e-05
-3.724117e-05
-3.6200322e-05
-3.5107502e-05
-3.3966274e-05
-3.2777047e-05
-3.1540729e-05
-3.025958e-05
-2.8933685e-05
-2.7560963e-05
-2.6130527e-05
-2.4654032e-05
-2.3134247e-05
-2.1583142e-05
-1.9989622e-05
-1.8361602e-05
-1.670887e-05
-1.5009977e-05
-1.3285888e-05
-1.1539031e-05
-9.7438017e-06
-7.935583e-06
-6.0968822e-06
-4.2224341e-06
-2.3413094e-06
-4.1227077e-07
1.5301651e-06
3.4942998e-06
5.4968633e-06
7.5225607e-06
9.5662405e-06
1.1658238e-05
1.3764878e-05
1.5886332e-05
1.806809e-05
2.0280587e-05
2.251877e-05
2.4818293e-05
2.7148144e-05
2.9524009e-05
3.1967831e-05
3.4463904e-05
3.7016106e-05
3.9656089e-05
4.2355553e-05
4.5151593e-05
4.803171e-05
5.0996576e-05
5.4086114e-05
5.7268723e-05
6.0589635e-05
6.4052238e-05
6.7675632e-05
7.1462543e-05
7.5462625e-05
7.9654875e-05
8.4101372e-05
8.8800386e-05
9.3805634e-05
9.9085269e-05
0.00010481197
0.00011083922
0.00011743332
0.00012439558
0.00013210477
0.00014023257
0.00014941481
0.00015890748
0.00017007873
0.00018118383
0.00019502992
0.00020788937
0.00022539976
0.00023991405
0.00026259179
0.00027757667
0.00030782235
0.0003194288
0.00036081436
0.00035912911
0.00041659245
0.00037952538
0.00045964737
0.00035099674
0.00046130698
0.00025149697
0.00040313051
7.2730458e-05
1.8885858e-05
-0.00037309645
-0.00055380071
-0.00094157885
-0.0012525274
-0.0017972595
-0.0024695201
-0.0038529253
-0.0074650827
-0.057576732
-0.0066198212
-0.0027877719
-0.0014597393
-0.00078393636
-0.00035593034
-6.8243861e-05
0.00015004402
0.00030444369
0.00043043592
0.00050779712
0.00056139405
0.00058482674
0.00062139193
0.00065826196
0.00069386056
0.00073856673
0.00078470031
0.0008487857
0.00091205954
0.0010212023
0.0011415001
0.0012339268
0.0013152429
0.0013696203
0.0014275293
0.0014371537
0.0014619588
0.001358776
0.001258445
0.00084256157
0.0004370105
-4.0513679e-05
-2.524765e-05
-0.00049119485
0.00034828988
-0.00097025467
-9.3532785e-06
0.00077709695
-0.00052350223
0.00039333141
-0.00032913791
-0.0024847033
-0.0025826053
-0.0011639667
-0.00094267528
-0.00072976562
-0.00058602895
-0.00052055912
-0.00050041829
-0.00048582975
-0.00046479533
-0.00041334596
-0.00032178156
-0.00023878626
-0.00015983105
-8.3904983e-05
-2.6535944e-05
2.1513397e-05
4.5236627e-05
4.9077273e-05
3.2047133e-05
-9.9132742e-06
-6.1792541e-05
-0.00010608496
-0.00014580448
-0.00017951534
-0.00020699043
-0.00022629002
-0.00023629194
-0.00023269797
-0.00021203589
-0.00017454957
-0.00014206149
-0.00010449711
-7.1084506e-05
-2.6526456e-05
1.2144873e-06
5.7966697e-05
4.6518117e-05
0.00013156658
-2.0406328e-05
0.0002412981
-8.2673399e-05
0.00015014989
1.5530466e-05
6.7538229e-05
3.3663984e-05
4.7694964e-05
3.7064524e-05
4.113602e-05
3.7471426e-05
3.8631527e-05
3.7219246e-05
3.7445093e-05
3.6766627e-05
3.663382e-05
3.6148956e-05
3.5826335e-05
3.5338204e-05
3.4870618e-05
3.4302657e-05
3.3703237e-05
3.3025777e-05
3.2301765e-05
3.151719e-05
3.06829e-05
2.979768e-05
2.8863518e-05
2.7882868e-05
2.6856692e-05
2.5787308e-05
2.4664594e-05
2.3492678e-05
2.2273635e-05
2.1021179e-05
1.9723126e-05
1.839664e-05
1.7033928e-05
1.5628976e-05
1.4206344e-05
1.2743009e-05
1.1241554e-05
9.7308917e-06
8.1717718e-06
6.5927287e-06
4.9974731e-06
3.3535837e-06
1.7091487e-06
2.180577e-08
-1.6910899e-06
-3.4195665e-06
-5.1807789e-06
-6.979803e-06
-8.7851328e-06
-1.0628049e-05
-1.2509088e-05
-1.4404569e-05
-1.6350249e-05
-1.8340068e-05
-2.0346761e-05
-2.2413263e-05
-2.4528632e-05
-2.6680998e-05
-2.8896568e-05
-3.1184061e-05
-3.3515698e-05
-3.5943393e-05
-3.8431304e-05
-4.1007009e-05
-4.3689273e-05
-4.6443527e-05
-4.9335138e-05
-5.2336032e-05
-5.5475014e-05
-5.8758912e-05
-6.2229498e-05
-6.5864492e-05
-6.9741845e-05
-7.3822958e-05
-7.817454e-05
-8.2777948e-05
-8.7778061e-05
-9.3014817e-05
-9.8800288e-05
-0.00010487522
-0.00011168278
-0.0001188073
-0.0001269809
-0.00013535195
-0.00014541831
-0.000155267
-0.00016800571
-0.00017950462
-0.00019611484
-0.00020924207
-0.00023161666
-0.00024554923
-0.00027700432
-0.0002886242
-0.00033491154
-0.00033535259
-0.00040561105
-0.00037298139
-0.00048097968
-0.00037032252
-0.00053320783
-0.0002857106
-0.00052332558
-0.00012700366
-0.00035616701
0.000161301
0.00022421891
0.00065944394
0.00086505429
0.0013563469
0.0018245069
0.0027554077
0.0045289725
0.012080011
0.015164049
0.0043572642
0.0021782963
0.0012248651
0.00068145453
0.00032829445
7.3524709e-05
-0.0001129005
-0.00025900494
-0.00036452412
-0.00044557959
-0.00048860725
-0.0005214324
-0.00054417299
-0.0005846001
-0.00061519883
-0.00065512156
-0.00070008522
-0.00075294784
-0.00082026088
-0.00090506037
-0.0010204551
-0.001108386
-0.0011801197
-0.0012386025
-0.0012809084
-0.0013097146
-0.0012995287
-0.0012488849
-0.0010612084
-0.00077935241
-0.00026807536
-3.5150366e-05
0.00033014216
-0.00016467029
0.00080268582
-0.0012803189
4.1771695e-05
0.00094247897
-0.00068417349
0.00049001334
-0.00031240478
0.00023790332
-0.00042081466
-7.6024208e-05
-0.00019987981
-8.5178326e-05
-0.00010274564
-7.3576977e-05
-6.9611465e-05
-6.5597467e-05
-6.4521009e-05
-5.5874346e-05
-4.2526745e-05
-3.7094097e-05
-2.1289142e-05
-1.2128288e-05
-4.7227652e-06
4.9482175e-06
6.439884e-06
9.9061086e-06
7.7993429e-06
1.801974e-06
-4.5959716e-06
-9.5233211e-06
-1.6174953e-05
-2.0400983e-05
-2.4856831e-05
-2.7856387e-05
-3.0295443e-05
-3.0472099e-05
-2.8384593e-05
-2.2796055e-05
-2.3054928e-05
-1.5231961e-05
-1.537429e-05
-5.8598853e-06
-1.2695058e-05
1.0594793e-05
-2.5839306e-05
5.0028686e-05
-9.4973906e-05
0.00021881944
-0.00015796205
0.00011633647
-2.5504787e-05
3.7416273e-05
5.1383335e-07
1.796095e-05
6.2753125e-06
1.1447835e-05
7.3686969e-06
8.8763095e-06
7.301115e-06
7.6604894e-06
6.9621158e-06
6.9508276e-06
6.5670486e-06
6.4331678e-06
6.1626062e-06
5.9830721e-06
5.7501282e-06
5.5490684e-06
5.3244547e-06
5.1101445e-06
4.8851006e-06
4.6606177e-06
4.4318699e-06
4.1990477e-06
3.9639888e-06
3.7249835e-06
3.4815118e-06
3.2323608e-06
2.9819309e-06
2.7194129e-06
2.4622378e-06
2.1906853e-06
1.9255796e-06
1.6569227e-06
1.3724332e-06
1.103216e-06
8.2163343e-07
5.249103e-07
2.5356984e-07
-4.6221257e-08
-3.408066e-07
-6.2332014e-07
-9.3912601e-07
-1.2238192e-06
-1.5316019e-06
-1.8450081e-06
-2.1447618e-06
-2.4540981e-06
-2.7823916e-06
-3.0847292e-06
-3.4052391e-06
-3.7441933e-06
-4.0575746e-06
-4.3931461e-06
-4.7454994e-06
-5.0736946e-06
-5.4304534e-06
-5.7964742e-06
-6.1513386e-06
-6.5270631e-06
-6.9235762e-06
-7.3024623e-06
-7.7249488e-06
-8.1360964e-06
-8.5648264e-06
-9.0285428e-06
-9.4739363e-06
-9.9708928e-06
-1.0472646e-05
-1.0998206e-05
-1.1540509e-05
-1.2135889e-05
-1.2731892e-05
-1.3403615e-05
-1.4082792e-05
-1.4827545e-05
-1.5577395e-05
-1.6480134e-05
-1.7289863e-05
-1.8360032e-05
-1.9288049e-05
-2.0590109e-05
-2.1637606e-05
-2.3303833e-05
-2.4371323e-05
-2.6694859e-05
-2.7575063e-05
-3.103436e-05
-3.1292453e-05
-3.6797678e-05
-3.5482783e-05
-4.4786166e-05
-3.9601655e-05
-5.6666218e-05
-4.193245e-05
-7.5599248e-05
-3.7888414e-05
-0.00010699632
-1.6126149e-05
-0.0001587393
4.3571447e-05
-0.00023056118
0.00015055675
-0.00029658832
0.00025700331
-0.00025281102
0.00018548541
-7.9457247e-05
0.00018314081
5.2892546e-05
0.00025587578
0.0002149786
0.00048445333
0.00076115866
0.0026323203
0.00082182496
0.00038119004
0.00020547701
0.00011806693
5.8243378e-05
2.3726654e-05
-8.503329e-06
-2.5249025e-05
-4.6903524e-05
-5.2597566e-05
-6.7586127e-05
-6.6741689e-05
-7.6981945e-05
-7.2295244e-05
-8.1711141e-05
-8.4093177e-05
-8.8751878e-05
-9.6788114e-05
-0.00010039497
-0.00011679948
-0.00011981177
-0.00013894955
-0.00015213169
-0.00015901519
-0.00017223843
-0.00016998065
-0.00018785287
-0.00016329687
-0.00019053762
-9.9758832e-05
-0.00014830255
1.6626987e-05
-8.1798733e-05
0.00025366421
-0.00038316289
0.00085117377
-0.0013122097
6.5291955e-05
0.00099830431
-0.00077742416
0.00051573393
-0.00035414272
0.00038265897
3.6051707e-05
0.00015453552
-5.4057304e-05
4.9609422e-05
-6.2776479e-06
1.2325356e-05
1.1493736e-05
1.3318766e-05
1.098705e-05
1.2798565e-05
1.2181595e-05
1.9639396e-06
5.9240934e-06
2.1486089e-06
-5.8100401e-07
1.4643375e-06
-2.452015e-06
4.44132e-08
-4.0222721e-07
-7.4913679e-07
1.1046593e-06
3.7261139e-06
3.3095298e-06
4.7962635e-06
4.9477788e-06
5.5249907e-06
5.1340909e-06
5.1618708e-06
4.845359e-06
5.3221539e-06
-9.7928113e-07
2.3773025e-06
-3.2136939e-06
1.4540918e-06
-1.0938441e-05
8.9734944e-06
-3.2723545e-05
4.4844809e-05
-0.00010546341
0.00021089513
-0.00020283586
9.794452e-05
-4.7817513e-05
2.4130336e-05
-1.3847903e-05
6.9896899e-06
-4.7198468e-06
1.8812382e-06
-1.9870147e-06
2.0401426e-07
-1.1388925e-06
-3.9412292e-07
-8.7869778e-07
-6.2473083e-07
-8.0881596e-07
-7.2377317e-07
-7.9849499e-07
-7.7264971e-07
-8.0551611e-07
-7.980002e-07
-8.1101029e-07
-8.0838058e-07
-8.1224419e-07
-8.1121962e-07
-8.1104503e-07
-8.0895004e-07
-8.0512739e-07
-7.9999384e-07
-7.9504653e-07
-7.920137e-07
-7.7990383e-07
-7.7361782e-07
-7.5722216e-07
-7.5171243e-07
-7.3448883e-07
-7.1767743e-07
-7.1371867e-07
-6.8651047e-07
-6.6937487e-07
-6.6585091e-07
-6.2758597e-07
-6.1882538e-07
-5.9948394e-07
-5.6289334e-07
-5.6076475e-07
-5.1736376e-07
-4.9716103e-07
-4.8041548e-07
-4.4204435e-07
-4.1105847e-07
-3.9740747e-07
-3.4671091e-07
-3.1386515e-07
-2.9939108e-07
-2.4636716e-07
-2.1076099e-07
-1.8989825e-07
-1.3098043e-07
-9.5580904e-08
-6.4810131e-08
-7.979094e-09
3.7511653e-08
7.0438438e-08
1.39432e-07
1.7553554e-07
2.3940791e-07
3.0126951e-07
3.4392584e-07
4.3064675e-07
4.798047e-07
5.5178743e-07
6.2742195e-07
7.1558583e-07
7.8163468e-07
8.9169937e-07
9.6306136e-07
1.0772939e-06
1.1733601e-06
1.3305101e-06
1.3828472e-06
1.6329047e-06
1.668164e-06
1.987901e-06
1.9869929e-06
2.4412935e-06
2.3130717e-06
3.1125851e-06
2.5971925e-06
4.1359136e-06
2.7672749e-06
5.7803223e-06
2.5684728e-06
8.590195e-06
1.425848e-06
1.3983816e-05
-2.4350426e-06
2.532776e-05
-1.3523173e-05
5.0529881e-05
-4.2691944e-05
0.00010763876
-0.00011300746
0.00022385913
-0.00024076234
0.00038181554
-0.00036970607
0.00046539328
-0.00033256867
0.00023354374
-0.00018657544
0.00010937191
-0.00014742705
3.8950694e-05
-0.00018232046
-5.6787016e-05
-0.00069751587
-0.00028867063
-0.00016693738
-8.0838107e-05
-5.2960294e-05
-3.0969595e-05
-2.2849395e-05
-9.3493007e-06
-7.0780542e-06
3.7542476e-06
1.915585e-06
1.2996764e-05
7.6806368e-06
1.5528924e-05
7.7173459e-06
1.7874705e-05
1.3287562e-05
1.6036846e-05
1.778329e-05
1.6382947e-05
2.2389839e-05
1.5199538e-05
2.9579798e-05
2.8608211e-05
2.9721171e-05
3.6013555e-05
3.1759171e-05
4.498112e-05
2.9136123e-05
6.179564e-05
1.5792951e-05
9.748717e-05
-3.5899349e-05
6.9466958e-05
-0.00011176987
0.00024288742
-0.00044694127
0.00088153012
-0.0012523949
7.3737549e-05
0.0010474945
-0.00087969247
0.00055852724
-0.00038057376
0.0003278347
6.0885138e-06
0.00017896244
-6.6984208e-05
5.4357697e-05
-9.0116313e-06
1.1498533e-05
1.0335296e-05
1.2473232e-05
1.0014605e-05
1.2450805e-05
1.2447425e-05
1.2007072e-06
5.9711433e-06
2.1244485e-06
-7.9167556e-07
1.6303894e-06
-2.728049e-06
-1.4272211e-07
-8.3922393e-07
-1.5194295e-06
1.6687669e-07
2.9013762e-06
2.2214377e-06
3.7491778e-06
3.7710318e-06
4.3412452e-06
3.9411015e-06
4.1515691e-06
4.0545902e-06
4.83938e-06
-2.0279929e-06
1.9744103e-06
-3.9466666e-06
1.5951607e-06
-1.178844e-05
1.0439962e-05
-3.4763722e-05
4.8784621e-05
-0.00011148326
0.0002184078
-0.0002187962
0.00010490754
-5.3974161e-05
2.5791065e-05
-1.612811e-05
7.2945805e-06
-5.6782067e-06
1.8317069e-06
-2.4440045e-06
8.3719472e-08
-1.3853984e-06
-5.0600571e-07
-1.0254083e-06
-7.1254727e-07
-9.0187064e-07
-7.9016816e-07
-8.6218216e-07
-8.2230906e-07
-8.5292749e-07
-8.3917053e-07
-8.5035602e-07
-8.4641654e-07
-8.5170336e-07
-8.5257261e-07
-8.5603977e-07
-8.5934475e-07
-8.6182987e-07
-8.6305004e-07
-8.6914151e-07
-8.7776004e-07
-8.736885e-07
-8.7919969e-07
-8.7476236e-07
-8.840163e-07
-8.7954331e-07
-8.7621196e-07
-8.8956054e-07
-8.7583434e-07
-8.7479013e-07
-8.8975996e-07
-8.6436704e-07
-8.7493362e-07
-8.7257085e-07
-8.510235e-07
-8.6971029e-07
-8.4048434e-07
-8.3784725e-07
-8.3983083e-07
-8.1724178e-07
-8.0261586e-07
-8.081476e-07
-7.7136079e-07
-7.5524593e-07
-7.6062176e-07
-7.2081246e-07
-7.0096683e-07
-6.9784264e-07
-6.5142161e-07
-6.3335675e-07
-6.1940127e-07
-5.7355729e-07
-5.4475158e-07
-5.2815539e-07
-4.6903583e-07
-4.5232702e-07
-3.9951304e-07
-3.4873568e-07
-3.2515476e-07
-2.4905964e-07
-2.1370545e-07
-1.5610858e-07
-9.2959849e-08
-1.6693145e-08
3.1623014e-08
1.3358971e-07
1.880081e-07
2.9032104e-07
3.6864898e-07
5.2175856e-07
5.4790885e-07
8.0416418e-07
8.012812e-07
1.1420389e-06
1.0850532e-06
1.5930053e-06
1.3702284e-06
2.3016027e-06
1.5793923e-06
3.451923e-06
1.6062707e-06
5.4163415e-06
1.0950236e-06
9.0180544e-06
-8.3510661e-07
1.650994e-05
-7.0431018e-06
3.3912318e-05
-2.5878958e-05
7.8325932e-05
-8.2489085e-05
0.00020107187
-0.00024771473
0.00051204258
-0.00057384203
0.00088437011
-0.00075053868
0.00084119668
-0.00052437958
0.00034265596
-0.0002694146
0.00016848446
-0.00021158641
8.2734167e-05
-0.00029581916
-5.475075e-05
-0.0007044907
-0.00010790982
-0.00011050292
-5.8357983e-05
-4.1337614e-05
-2.4457063e-05
-1.9331341e-05
-7.1683512e-06
-6.4511413e-06
4.2130949e-06
1.1996469e-06
1.2752221e-05
6.0923305e-06
1.462211e-05
5.4934475e-06
1.6842773e-05
1.1358231e-05
1.4257698e-05
1.5988544e-05
1.4139782e-05
2.0604129e-05
1.2105752e-05
2.8137962e-05
2.6178163e-05
2.6933452e-05
3.3670489e-05
2.8343677e-05
4.3258276e-05
2.4334769e-05
6.2354126e-05
7.211018e-06
0.00010467532
-5.5866935e-05
7.1908869e-05
-0.00013456679
0.00026783617
-0.00047573964
0.00094436594
-0.0012239244
8.1902703e-05
0.0011094057
-0.00099648773
0.00061057385
-0.00040673235
0.00028696115
-1.0939761e-06
0.00018000211
-0.00010552894
4.225378e-05
-2.5260404e-05
-4.3783935e-07
-9.7402909e-07
1.8061433e-06
-4.7669117e-07
3.5856226e-06
5.9364415e-06
-4.4652805e-06
2.7557529e-06
3.4151969e-07
-1.4627641e-06
2.2803252e-06
-1.8780505e-06
1.0685663e-06
-8.3967693e-08
-1.7718286e-06
-1.1769356e-06
7.915963e-07
-9.829191e-07
-1.648407e-07
-7.5607353e-07
-6.7330189e-07
-1.3961414e-06
-1.1356149e-06
-8.1793249e-07
9.8468607e-07
-5.8997389e-06
-6.2412798e-07
-6.4962804e-06
5.7851227e-07
-1.3642649e-05
1.1695164e-05
-3.7467157e-05
5.33093e-05
-0.00011848741
0.00023018273
-0.00023171287
0.00011772801
-5.7838907e-05
3.0581568e-05
-1.6452472e-05
9.7479505e-06
-4.9603814e-06
3.4670835e-06
-1.4287579e-06
1.4005489e-06
-3.0789475e-07
6.6102006e-07
3.7240105e-08
3.6213399e-07
1.1302158e-07
2.082287e-07
8.9454004e-08
9.6234604e-08
2.1416711e-08
-6.1274531e-09
-6.5870382e-08
-1.0986917e-07
-1.6779312e-07
-2.2270364e-07
-2.825779e-07
-3.4497975e-07
-4.0858285e-07
-4.7631291e-07
-5.4927067e-07
-6.2488655e-07
-6.9130273e-07
-7.7074418e-07
-8.4111574e-07
-9.2829961e-07
-1.0023014e-06
-1.0793838e-06
-1.1766572e-06
-1.2452231e-06
-1.329554e-06
-1.4337314e-06
-1.4926924e-06
-1.5947434e-06
-1.6825394e-06
-1.7494723e-06
-1.8646928e-06
-1.9248101e-06
-2.01714e-06
-2.1160759e-06
-2.1868318e-06
-2.2681926e-06
-2.3738949e-06
-2.4310579e-06
-2.5140589e-06
-2.6230782e-06
-2.6801049e-06
-2.7624862e-06
-2.8651566e-06
-2.919961e-06
-3.0079827e-06
-3.1038207e-06
-3.1664578e-06
-3.2491543e-06
-3.3497969e-06
-3.4037235e-06
-3.5115795e-06
-3.5824302e-06
-3.6565861e-06
-3.7676769e-06
-3.8236093e-06
-3.9327293e-06
-4.0222725e-06
-4.1147467e-06
-4.1985688e-06
-4.3276915e-06
-4.402921e-06
-4.546061e-06
-4.6494435e-06
-4.7967059e-06
-4.8732225e-06
-5.1270095e-06
-5.1216677e-06
-5.4713287e-06
-5.4301279e-06
-5.9189829e-06
-5.7476547e-06
-6.5690544e-06
-5.9759517e-06
-7.6173277e-06
-5.9630726e-06
-9.358844e-06
-5.3290268e-06
-1.2644585e-05
-3.0822326e-06
-1.9507218e-05
4.1498992e-06
-3.6815638e-05
2.8338702e-05
-9.0409619e-05
0.00012501364
-0.00032466871
0.00081288714
-0.0024735465
0.0030278766
-0.0044215218
0.0050809589
-0.0046955765
0.0026491393
-0.0010116137
0.00058551484
-0.00043029474
0.00032536151
-0.0003190261
0.00029059852
-0.00055464672
0.00029523031
-0.00014879078
9.0712728e-06
-3.9006378e-05
-1.5718453e-05
-1.4863057e-05
-8.7513601e-06
-1.1420722e-05
-4.5847158e-06
-8.7954942e-06
-9.7752706e-07
-7.5318711e-06
3.0010799e-06
-6.2767328e-06
2.3814089e-06
-8.4814244e-06
3.8258694e-06
-3.3615397e-06
-7.992182e-07
1.1462995e-07
-3.1202949e-06
2.6972045e-06
-8.7944006e-06
7.0288506e-06
1.2560113e-06
-6.9010045e-07
4.5045119e-06
-4.0059693e-06
1.1138364e-05
-1.3028858e-05
2.9993211e-05
-3.6697004e-05
8.1886271e-05
-0.00010658476
6.0739756e-05
-0.00016847738
0.00029699706
-0.00051193811
0.0010204273
-0.0012243054
9.4111145e-05
0.0011843375
-0.0011243199
0.00066531424
-0.00043831
0.00027776097
-0.00010023437
0.0002184155
-0.00013133714
4.4935911e-05
-3.1948696e-05
-3.2712632e-06
-3.5174069e-06
-2.6766535e-07
-2.8239358e-06
2.0667851e-06
5.1694143e-06
-6.1074967e-06
2.3503375e-06
2.4701148e-08
-1.7877368e-06
2.7017463e-06
-1.8293928e-06
1.4770474e-06
1.8532447e-07
-1.957009e-06
-1.5107793e-06
5.4181315e-07
-1.6422344e-06
-8.7909409e-07
-1.7357926e-06
-1.6891316e-06
-2.6137857e-06
-2.4164963e-06
-2.0911273e-06
9.4020027e-08
-7.5261205e-06
-1.5215894e-06
-8.0645973e-06
-1.5737242e-07
-1.5970615e-05
1.207073e-05
-4.1710268e-05
5.6491903e-05
-0.00012683413
0.00024294297
-0.00024717925
0.00013092185
-6.2888081e-05
3.5251554e-05
-1.7502014e-05
1.1851952e-05
-4.8285328e-06
4.6419693e-06
-9.7415001e-07
2.1916648e-06
1.9876823e-07
1.2601137e-06
5.0433586e-07
8.3571677e-07
5.0924238e-07
5.7747576e-07
3.9967548e-07
3.6568578e-07
2.3588634e-07
1.6226184e-07
4.3161128e-08
-5.204792e-08
-1.6319195e-07
-2.8185169e-07
-3.9879145e-07
-5.1839439e-07
-6.4173574e-07
-7.9828644e-07
-9.2031274e-07
-1.0428377e-06
-1.1978169e-06
-1.3424701e-06
-1.4808735e-06
-1.6489284e-06
-1.7984833e-06
-1.9460593e-06
-2.1263542e-06
-2.274161e-06
-2.4363479e-06
-2.6260696e-06
-2.7640999e-06
-2.9528581e-06
-3.1284098e-06
-3.2787879e-06
-3.487215e-06
-3.6335197e-06
-3.8177461e-06
-4.0114557e-06
-4.1735058e-06
-4.3502602e-06
-4.5564313e-06
-4.7055625e-06
-4.8892395e-06
-5.1055358e-06
-5.2600595e-06
-5.4462969e-06
-5.6607837e-06
-5.8201381e-06
-6.0202524e-06
-6.2332895e-06
-6.4082316e-06
-6.611611e-06
-6.8405837e-06
-7.0167912e-06
-7.2590435e-06
-7.4636864e-06
-7.6789439e-06
-7.940614e-06
-8.144472e-06
-8.4166389e-06
-8.6716142e-06
-8.9412149e-06
-9.2095948e-06
-9.5417929e-06
-9.8251148e-06
-1.020485e-05
-1.054754e-05
-1.0968461e-05
-1.132546e-05
-1.1926456e-05
-1.223705e-05
-1.3029463e-05
-1.3366716e-05
-1.444413e-05
-1.4731691e-05
-1.6394834e-05
-1.6298564e-05
-1.9341295e-05
-1.8058825e-05
-2.4051788e-05
-1.9820203e-05
-3.2707601e-05
-2.0662097e-05
-5.1622874e-05
-1.5675884e-05
-0.00010899981
2.9717823e-05
-0.00045339889
0.00031456882
-0.00049522042
0.00030473063
-0.00040112046
0.00041227956
-0.000569257
0.00075544871
-0.0012815802
0.0023631281
-0.001588347
0.0014039226
-0.0010086406
0.00080883387
-0.00096472122
0.00040276504
-0.00052035188
0.00011670125
-9.6610569e-05
5.8148602e-06
-3.7192644e-05
-1.7812161e-05
-1.8486465e-05
-1.3119099e-05
-1.6632817e-05
-9.8255285e-06
-1.4680241e-05
-6.3437782e-06
-1.3813045e-05
-2.0548636e-06
-1.2466781e-05
-2.4304398e-06
-1.4612305e-05
-4.0455477e-07
-8.7690402e-06
-5.7137228e-06
-4.8472215e-06
-8.6642586e-06
-2.2463368e-06
-1.5819805e-05
1.8775378e-06
-5.7203141e-06
-8.7529131e-06
-3.364986e-06
-1.4211401e-05
2.6910952e-06
-2.7416255e-05
2.2267808e-05
-6.1355615e-05
7.9499939e-05
-0.00015729957
4.6686313e-05
-0.00021996443
0.00031958292
-0.00056728952
0.0010986211
-0.0012473649
0.00010899733
0.0012712875
-0.0012605005
0.00071960201
-0.00047984298
0.00027195516
-6.7508477e-05
0.00028268318
-0.0001565553
5.3229933e-05
-3.6043339e-05
-3.3494373e-06
-3.586188e-06
1.9273865e-07
-2.7438218e-06
2.6986362e-06
6.3190884e-06
-6.6912398e-06
2.7216153e-06
1.055937e-07
-2.0740673e-06
3.0841566e-06
-2.1647645e-06
1.6250722e-06
2.1779385e-07
-2.1224714e-06
-1.6354547e-06
7.6130204e-07
-1.6901117e-06
-7.7802703e-07
-1.8384021e-06
-1.7621128e-06
-2.7816979e-06
-2.6306485e-06
-2.3503208e-06
9.9693977e-08
-8.6286795e-06
-2.0733652e-06
-9.4484266e-06
-7.535887e-07
-1.8417963e-05
1.2403514e-05
-4.6299116e-05
5.9984466e-05
-0.00013526015
0.00025703489
-0.00026460268
0.00014493609
-6.8846491e-05
4.0098578e-05
-1.9039103e-05
1.3865504e-05
-5.0484619e-06
5.6059822e-06
-8.3618085e-07
2.7106962e-06
3.8396695e-07
1.5500815e-06
6.3922261e-07
9.7198487e-07
5.604375e-07
5.9998807e-07
3.4856254e-07
2.7431117e-07
9.1298153e-08
-3.0417887e-08
-1.951189e-07
-3.4294013e-07
-5.0923098e-07
-6.7029012e-07
-8.3504249e-07
-1.0065103e-06
-1.1733586e-06
-1.3843784e-06
-1.5640547e-06
-1.7212062e-06
-1.9204097e-06
-2.120725e-06
-2.3048819e-06
-2.5172256e-06
-2.7124951e-06
-2.9110747e-06
-3.1394627e-06
-3.3339556e-06
-3.5552061e-06
-3.7986155e-06
-3.9803285e-06
-4.2313726e-06
-4.4632968e-06
-4.6675325e-06
-4.9402909e-06
-5.1425908e-06
-5.393014e-06
-5.6559146e-06
-5.88479e-06
-6.1344876e-06
-6.4226562e-06
-6.643698e-06
-6.9105532e-06
-7.219322e-06
-7.4581643e-06
-7.7411535e-06
-8.0607546e-06
-8.3188407e-06
-8.6318018e-06
-8.9644272e-06
-9.2574081e-06
-9.591655e-06
-9.960201e-06
-1.0274969e-05
-1.0679421e-05
-1.104313e-05
-1.1428248e-05
-1.1881151e-05
-1.2272678e-05
-1.2761484e-05
-1.324345e-05
-1.3754601e-05
-1.4283574e-05
-1.491096e-05
-1.5493932e-05
-1.622172e-05
-1.694091e-05
-1.7789464e-05
-1.8590505e-05
-1.9755679e-05
-2.0607043e-05
-2.21554e-05
-2.3199502e-05
-2.5327555e-05
-2.6550969e-05
-2.9842248e-05
-3.0966354e-05
-3.6888709e-05
-3.7113049e-05
-4.9057e-05
-4.6423801e-05
-7.4602314e-05
-6.2892639e-05
-0.00015110812
-0.00010179959
-2.43569e-05
-9.1222831e-06
-0.00024452155
7.143386e-05
-0.00018902449
0.00013400798
-0.00022049683
0.0002353605
-0.00033219771
0.00044117765
-0.00063666594
0.0010076795
-0.0017313626
0.0046231778
-0.0046636596
0.0026650757
-0.0010045806
0.00035335382
-0.00025347077
5.5097805e-05
-9.4005598e-05
-1.0858309e-05
-4.8859364e-05
-2.9789686e-05
-2.9697373e-05
-2.3243842e-05
-2.615368e-05
-1.7936375e-05
-2.2395976e-05
-1.2511345e-05
-2.0149303e-05
-6.3275627e-06
-1.7645468e-05
-5.710883e-06
-1.91668e-05
-2.5193068e-06
-1.1898406e-05
-8.0951476e-06
-6.8716997e-06
-1.11025e-05
-3.5911211e-06
-1.9042314e-05
1.5280275e-06
-7.4600439e-06
-1.0965186e-05
-4.9148178e-06
-1.786742e-05
1.4735786e-06
-3.5501554e-05
2.2613746e-05
-8.2804303e-05
8.5885196e-05
-0.00021623894
3.0362684e-05
-0.00028709715
0.00033892701
-0.00064238067
0.0011774292
-0.0012941626
0.00012331183
0.0013695312
-0.0014042745
0.00077565628
-0.00053240887
0.00026027154
-4.2744469e-05
0.0003694891
-0.00018846948
6.285734e-05
-4.0964331e-05
-3.5963215e-06
-3.7818736e-06
5.2920018e-07
-2.8276244e-06
3.2442276e-06
7.4413767e-06
-7.4061728e-06
3.066459e-06
2.0961651e-07
-2.3303758e-06
3.3798327e-06
-2.4640881e-06
1.8402596e-06
2.6706161e-07
-2.3778168e-06
-1.7621076e-06
8.6864764e-07
-1.8059141e-06
-7.9992441e-07
-1.8839376e-06
-1.8902175e-06
-3.123395e-06
-2.9784244e-06
-2.6322024e-06
1.0310365e-07
-9.8339908e-06
-2.49619e-06
-1.0851227e-05
-1.1202634e-06
-2.0695644e-05
1.3206581e-05
-5.0491151e-05
6.4532228e-05
-0.0001430529
0.00027329621
-0.00028377559
0.00016012267
-7.5791103e-05
4.5180093e-05
-2.1155189e-05
1.5768456e-05
-5.6866092e-06
6.3271274e-06
-1.0548768e-06
2.9368795e-06
2.4355302e-07
1.5412866e-06
4.6720174e-07
8.3113891e-07
3.2967676e-07
3.589782e-07
6.8954748e-08
-1.879283e-08
-2.3433666e-07
-3.7214514e-07
-5.4444615e-07
-6.899847e-07
-8.5727732e-07
-1.0150051e-06
-1.1775772e-06
-1.3363553e-06
-1.4925338e-06
-1.6567838e-06
-1.8227891e-06
-1.97435e-06
-2.1070954e-06
-2.2751643e-06
-2.4139788e-06
-2.5721947e-06
-2.7130206e-06
-2.8618481e-06
-3.0318388e-06
-3.1594738e-06
-3.3158902e-06
-3.5001726e-06
-3.6182163e-06
-3.7998987e-06
-3.9594621e-06
-4.0960374e-06
-4.3056142e-06
-4.4352016e-06
-4.6263228e-06
-4.8284583e-06
-4.9927928e-06
-5.1922944e-06
-5.4298011e-06
-5.5894941e-06
-5.8175337e-06
-6.0888907e-06
-6.2820667e-06
-6.5368087e-06
-6.8396067e-06
-7.0716484e-06
-7.3749354e-06
-7.710725e-06
-8.0032221e-06
-8.3510227e-06
-8.747943e-06
-9.0855804e-06
-9.5410058e-06
-9.958206e-06
-1.0408543e-05
-1.0954084e-05
-1.143626e-05
-1.2045756e-05
-1.2661784e-05
-1.3331488e-05
-1.4038515e-05
-1.4889372e-05
-1.5700966e-05
-1.6720253e-05
-1.7759978e-05
-1.9002336e-05
-2.0230453e-05
-2.1985224e-05
-2.3404879e-05
-2.584557e-05
-2.7725439e-05
-3.1262607e-05
-3.3783336e-05
-3.9622593e-05
-4.2833487e-05
-5.4297382e-05
-5.8193207e-05
-8.5349937e-05
-9.1686207e-05
-0.00018222018
-0.00016843118
-0.00025031092
-8.8739818e-05
-0.00016539861
-6.9310027e-06
-0.00012263285
3.8266361e-05
-0.00012568715
9.0065211e-05
-0.00016208904
0.00017231174
-0.00024918222
0.00032654694
-0.00045119905
0.00067521364
-0.00089122532
0.0011246554
-0.00086158986
0.00058731472
-0.00041641356
0.00017825232
-0.00018131355
3.1988973e-05
-9.2112407e-05
-1.9163413e-05
-5.5349647e-05
-3.7102567e-05
-3.694589e-05
-3.0108369e-05
-3.269192e-05
-2.3472234e-05
-2.8066448e-05
-1.6778389e-05
-2.498688e-05
-9.194276e-06
-2.190048e-05
-8.2602138e-06
-2.3313162e-05
-3.9857588e-06
-1.460904e-05
-9.9858322e-06
-8.5451557e-06
-1.3076033e-05
-4.340521e-06
-2.1929392e-05
2.301392e-06
-8.3117032e-06
-1.2394465e-05
-5.6840353e-06
-2.1405961e-05
1.2155444e-06
-4.3745576e-05
2.597198e-05
-0.00010498474
0.00010448174
-0.00027703294
2.6322235e-05
-0.0003597748
0.00036650417
-0.000733823
0.0012619236
-0.0013668764
0.0001357146
0.0014784413
-0.0015565908
0.00084071169
-0.00059072421
0.0002409246
-3.3481505e-05
0.00047654492
-0.00022932315
7.3757541e-05
-4.717835e-05
-4.3369794e-06
-4.3243499e-06
6.7422512e-07
-3.2447353e-06
3.6190397e-06
8.4582061e-06
-8.3277038e-06
3.3871181e-06
3.0223946e-07
-2.6185543e-06
3.8072223e-06
-2.6789715e-06
2.0274458e-06
4.2398589e-07
-2.5797461e-06
-1.9557107e-06
1.068577e-06
-1.988434e-06
-8.7216993e-07
-2.0946334e-06
-2.079242e-06
-3.4998055e-06
-3.2845268e-06
-3.0044478e-06
2.2960606e-07
-1.0908585e-05
-2.6762061e-06
-1.1755819e-05
-6.4105189e-07
-2.2178124e-05
1.5414961e-05
-5.3380645e-05
7.0865224e-05
-0.00014969476
0.00029202629
-0.00030536639
0.00017610368
-8.4427644e-05
5.0086594e-05
-2.4345914e-05
1.7213966e-05
-7.0969958e-06
6.5394875e-06
-1.8688583e-06
2.7007115e-06
-3.7766922e-07
1.13199e-06
-6.8845559e-08
3.8249882e-07
-1.4958048e-07
-6.2157698e-08
-3.2777554e-07
-3.581101e-07
-5.2808975e-07
-5.8639656e-07
-6.8360898e-07
-7.42957e-07
-8.0594549e-07
-8.5099667e-07
-8.9527254e-07
-9.1769586e-07
-9.9195106e-07
-9.6640437e-07
-8.802751e-07
-9.068412e-07
-8.6809246e-07
-8.2304257e-07
-7.5507246e-07
-7.026961e-07
-6.1806404e-07
-5.3144511e-07
-4.5829888e-07
-3.310122e-07
-2.2680976e-07
-1.4681157e-07
2.3045193e-08
1.0863051e-07
2.2959662e-07
3.9856753e-07
4.6773233e-07
6.440293e-07
7.5305512e-07
8.4682015e-07
1.017974e-06
1.13753e-06
1.1920247e-06
1.3461798e-06
1.4450999e-06
1.4782086e-06
1.6161535e-06
1.6958316e-06
1.7122795e-06
1.8111351e-06
1.833294e-06
1.8254797e-06
1.8786492e-06
1.8671857e-06
1.802893e-06
1.8265509e-06
1.7160255e-06
1.6612251e-06
1.5770099e-06
1.3895392e-06
1.297583e-06
1.0657711e-06
8.4819606e-07
5.9309974e-07
3.2131008e-07
-9.375253e-08
-4.1424098e-07
-9.4946046e-07
-1.4465668e-06
-2.1445589e-06
-2.731593e-06
-3.9267793e-06
-4.5371071e-06
-6.4085371e-06
-7.2797989e-06
-1.0344472e-05
-1.1547106e-05
-1.7619892e-05
-1.8865307e-05
-3.4590837e-05
-3.5089898e-05
-8.6378501e-05
-3.2544865e-06
-0.00011558117
-2.6138371e-05
-7.4638826e-05
-1.6817976e-06
-6.3990556e-05
1.6989727e-05
-6.921971e-05
4.0974485e-05
-8.8105028e-05
7.7887694e-05
-0.00012899223
0.00014350471
-0.00020734028
0.00026728346
-0.00036834968
0.00052217153
-0.00064323857
0.0006703863
-0.00051166205
0.00035206887
-0.00027562431
0.00013374307
-0.00013688927
2.899287e-05
-7.6442974e-05
-1.2153534e-05
-4.7362633e-05
-3.0230543e-05
-3.0656561e-05
-2.4221339e-05
-2.7597012e-05
-1.8422165e-05
-2.4003336e-05
-1.2220722e-05
-2.2008467e-05
-5.0628536e-06
-2.0283442e-05
-5.6930294e-06
-2.3455672e-05
-1.509064e-06
-1.4053887e-05
-8.7703027e-06
-7.2895138e-06
-1.2462314e-05
-2.3156727e-06
-2.2416728e-05
5.8772923e-06
-6.543243e-06
-1.1246739e-05
-3.6211348e-06
-2.2618257e-05
4.6911468e-06
-4.8809638e-05
3.8360011e-05
-0.00011996382
0.00015331042
-0.00032196255
5.868829e-05
-0.00042530545
0.00041806219
-0.00083540576
0.0013638494
-0.0014640277
0.000149985
0.0016002583
-0.0017202625
0.00092215457
-0.00064511243
0.00021902083
-3.9833814e-05
0.00055730496
-0.00028076471
8.663031e-05
-5.4642587e-05
-5.4752099e-06
-5.1143912e-06
7.3432722e-07
-3.7827744e-06
3.9582091e-06
9.6215542e-06
-9.4503243e-06
3.7296615e-06
2.7217547e-07
-2.9346526e-06
4.3606535e-06
-2.9336033e-06
2.2858619e-06
5.5765232e-07
-2.8077145e-06
-2.2139693e-06