/*--------------------------------*- C++ -*----------------------------------*\
  =========                 |
  \\      /  F ield         | OpenFOAM: The Open Source CFD Toolbox
   \\    /   O peration     | Website:  https://openfoam.org
    \\  /    A nd           | Version:  7
     \\/     M anipulation  |
\*---------------------------------------------------------------------------*/
FoamFile
{
    version     2.0;
    format      ascii;
    class       volSymmTensorField;
    location    "20000";
    object      T3;
}
// * * * * * * * * * * * * * * * * * * * * * * * * * * * * * * * * * * * * * //

dimensions      [0 0 0 0 0 0 0];

internalField   nonuniform List<symmTensor> 
32000
(
(0.16666799 -0.00015157649 -2.4120338e-20 0.16666535 1.3573105e-18 -0.33333333)
(0.16666548 -0.00093881995 4.7202026e-16 0.16666785 3.0409589e-16 -0.33333333)
(0.16669564 0.00052634553 5.892493e-16 0.16663769 2.9915246e-16 -0.33333333)
(0.16660804 -0.00038105673 1.1696104e-15 0.16672529 6.8927684e-17 -0.33333333)
(0.16673827 0.00023699855 2.202459e-16 0.16659506 1.2313795e-16 -0.33333333)
(0.16314659 -0.007703207 1.8954271e-15 0.17018675 -2.4097279e-16 -0.33333333)
(0.16878922 0.0025325785 -6.4497785e-16 0.16454411 3.7643521e-16 -0.33333333)
(0.16817837 0.0012217835 7.0801779e-19 0.16515496 5.7545775e-19 -0.33333333)
(0.1678423 0.00068140624 -4.4375429e-16 0.16549103 4.1838034e-16 -0.33333333)
(0.16779087 0.00048530026 -6.4285744e-16 0.16554247 5.5343641e-16 -0.33333333)
(0.16752877 0.00028506141 -6.1711109e-17 0.16580456 2.0607373e-17 -0.33333333)
(0.16747297 0.00020981073 2.1889591e-17 0.16586037 -1.6176781e-17 -0.33333333)
(0.16744772 0.00016503104 -6.769838e-17 0.16588561 5.9546404e-17 -0.33333333)
(0.16743399 0.00013729278 8.5355223e-15 0.16589935 -7.1233894e-15 -0.33333333)
(0.16740224 0.00011779394 9.1889855e-15 0.16593109 -7.8126137e-15 -0.33333333)
(0.16733142 0.00010229516 1.9991287e-17 0.16600191 6.4433252e-17 -0.33333333)
(0.16719157 8.3738321e-05 -2.2782268e-15 0.16614177 2.3523503e-15 -0.33333333)
(0.16704318 6.56642e-05 -2.6831752e-15 0.16629016 2.5177081e-15 -0.33333333)
(0.1669278 4.9620527e-05 -1.3261724e-15 0.16640554 1.1957272e-15 -0.33333333)
(0.1668024 2.7728091e-05 -1.5257489e-15 0.16653093 1.3383469e-15 -0.33333333)
(0.16670735 8.8363242e-06 -1.4130666e-17 0.16662599 -4.8607612e-17 -0.33333333)
(0.16663565 -7.0940035e-06 -5.9652327e-20 0.16669768 -2.0793229e-20 -0.33333333)
(0.16658991 -1.8317603e-05 3.8211409e-17 0.16674343 -3.594056e-17 -0.33333333)
(0.16658683 -1.9725022e-05 3.6435788e-17 0.1667465 -3.4296762e-17 -0.33333333)
(0.16661012 -1.4346644e-05 -1.5752431e-16 0.16672321 1.1860007e-16 -0.33333333)
(0.16667206 1.3950994e-06 -7.005729e-17 0.16666128 5.7097381e-17 -0.33333333)
(0.16675385 2.2875642e-05 -9.7847567e-17 0.16657949 8.087975e-17 -0.33333333)
(0.16682562 4.2651044e-05 1.2243049e-18 0.16650771 3.9039729e-19 -0.33333333)
(0.16688407 6.0858109e-05 -2.9383852e-17 0.16644926 2.499318e-17 -0.33333333)
(0.16693625 8.0293031e-05 2.5204627e-17 0.16639708 -2.5236466e-17 -0.33333333)
(0.16697571 9.9708051e-05 2.93542e-17 0.16635763 -2.2847293e-17 -0.33333333)
(0.16700254 0.00011929379 -2.7298911e-17 0.16633079 2.3102024e-17 -0.33333333)
(0.1670128 0.00013730219 -6.2142894e-17 0.16632053 4.0918556e-17 -0.33333333)
(0.16700278 0.00015091068 5.968116e-17 0.16633055 3.1027449e-17 -0.33333333)
(0.16696677 0.00015455259 -1.5412394e-15 0.16636656 1.205772e-15 -0.33333333)
(0.16690792 0.00014430559 -1.8092227e-15 0.16642542 1.2171401e-15 -0.33333333)
(0.16684642 0.00012583579 -1.7175957e-15 0.16648691 1.0688962e-15 -0.33333333)
(0.1667967 0.00010672649 -1.3665209e-14 0.16653663 6.5607404e-15 -0.33333333)
(0.16674384 7.4625043e-05 -1.2963396e-14 0.16658949 5.4127012e-15 -0.33333333)
(0.16669824 3.6298928e-05 1.4521005e-14 0.16663509 -5.4285562e-15 -0.33333333)
(0.166657 -1.3402844e-05 1.6017198e-14 0.16667633 -5.1660063e-15 -0.33333333)
(0.16663324 -5.7182374e-05 -2.8597101e-17 0.16670009 6.0636323e-18 -0.33333333)
(0.16661347 -0.00011637841 1.9398831e-14 0.16671986 -4.2102543e-15 -0.33333333)
(0.16663168 -0.00010387955 2.1851426e-14 0.16670166 -3.5719046e-15 -0.33333333)
(0.1666274 -0.00017720243 7.7622297e-17 0.16670593 2.6451608e-16 -0.33333333)
(0.16667323 5.867817e-05 -7.9863455e-15 0.1666601 1.0968155e-15 -0.33333333)
(0.16666006 -0.00034859334 -5.857181e-15 0.16667327 2.1474109e-16 -0.33333333)
(0.16666633 -8.1097507e-05 7.6441924e-18 0.166667 -1.5568053e-16 -0.33333333)
(0.16666627 -0.00013894829 -5.0540361e-21 0.16666706 -8.8996279e-25 -0.33333333)
(0.16666649 -7.8689235e-05 4.3999539e-21 0.16666684 3.5002137e-23 -0.33333333)
(0.16666651 -9.2291846e-05 -1.6057519e-21 0.16666683 -4.7445764e-23 -0.33333333)
(0.16666656 -7.3100197e-05 -4.03707e-15 0.16666677 6.0365638e-18 -0.33333333)
(0.16666658 -7.5857694e-05 -3.794072e-15 0.16666676 4.8119236e-18 -0.33333333)
(0.1666666 -6.8723923e-05 1.311349e-21 0.16666674 6.8588502e-23 -0.33333333)
(0.1666666 -6.8820291e-05 9.9503638e-25 0.16666673 -2.1956148e-23 -0.33333333)
(0.16666661 -6.5764711e-05 -3.4135749e-18 0.16666672 7.8635417e-17 -0.33333333)
(0.16666662 -6.5217722e-05 -2.0997784e-15 0.16666671 4.3318917e-16 -0.33333333)
(0.16666663 -6.3608448e-05 -2.0184348e-15 0.16666671 2.4654015e-16 -0.33333333)
(0.16666663 -6.2871336e-05 1.0004876e-15 0.1666667 -2.861782e-16 -0.33333333)
(0.16666663 -6.1739904e-05 -4.9985142e-15 0.1666667 -2.1086368e-16 -0.33333333)
(0.16666664 -6.0888204e-05 -9.8312153e-15 0.1666667 -3.8549081e-16 -0.33333333)
(0.16666664 -5.9851414e-05 -3.924108e-15 0.16666669 -2.8545138e-16 -0.33333333)
(0.16666664 -5.8868779e-05 -2.5412943e-18 0.16666669 6.7331481e-17 -0.33333333)
(0.16666664 -5.7765446e-05 5.8412373e-24 0.16666669 -8.8540978e-24 -0.33333333)
(0.16666665 -5.6626485e-05 -5.1593184e-22 0.16666669 -5.5002915e-24 -0.33333333)
(0.16666665 -5.5382385e-05 1.0390744e-21 0.16666668 3.9278082e-23 -0.33333333)
(0.16666665 -5.4068979e-05 -1.1090837e-18 0.16666668 3.3726052e-17 -0.33333333)
(0.16666665 -5.2666974e-05 -9.2278063e-16 0.16666668 2.4541687e-16 -0.33333333)
(0.16666666 -5.1194994e-05 -1.0314074e-14 0.16666668 3.5911621e-16 -0.33333333)
(0.16666666 -4.9649513e-05 -9.4409217e-15 0.16666668 1.1377798e-16 -0.33333333)
(0.16666666 -4.8035573e-05 1.0018136e-18 0.16666667 -3.3403753e-17 -0.33333333)
(0.16666666 -4.6353753e-05 -1.5135675e-27 0.16666667 3.7889365e-25 -0.33333333)
(0.16666666 -4.4605335e-05 5.3588804e-22 0.16666667 1.4933239e-23 -0.33333333)
(0.16666666 -4.2793517e-05 -5.3367981e-22 0.16666667 -3.3639881e-23 -0.33333333)
(0.16666666 -4.0918419e-05 8.1256463e-22 0.16666667 9.2620053e-24 -0.33333333)
(0.16666666 -3.8977097e-05 8.6976675e-19 0.16666667 -3.616541e-17 -0.33333333)
(0.16666667 -3.6954156e-05 9.9882029e-16 0.16666667 -2.1434971e-16 -0.33333333)
(0.16666667 -3.4866076e-05 1.0088051e-15 0.16666667 -1.4141782e-16 -0.33333333)
(0.16666667 -3.2716774e-05 -8.1698176e-19 0.16666667 3.6903916e-17 -0.33333333)
(0.16666667 -3.0523181e-05 1.1547456e-21 0.16666667 -2.4043343e-23 -0.33333333)
(0.16666667 -2.8269604e-05 -7.5557193e-19 0.16666666 3.9415563e-17 -0.33333333)
(0.16666667 -2.5967234e-05 -1.0940952e-15 0.16666666 2.1774335e-16 -0.33333333)
(0.16666667 -2.3629918e-05 -1.1125713e-15 0.16666666 1.3756665e-16 -0.33333333)
(0.16666667 -2.122732e-05 7.030729e-19 0.16666666 -4.0889906e-17 -0.33333333)
(0.16666667 -1.8789089e-05 -1.0754725e-14 0.16666666 -1.5006615e-18 -0.33333333)
(0.16666667 -1.631866e-05 -1.1025515e-14 0.16666666 -1.7993808e-18 -0.33333333)
(0.16666667 -1.3779821e-05 -1.6060525e-22 0.16666666 6.0312643e-24 -0.33333333)
(0.16666667 -1.1222613e-05 1.7690258e-22 0.16666666 -1.8435469e-23 -0.33333333)
(0.16666667 -8.6222967e-06 -7.9419974e-15 0.16666666 -1.8531443e-18 -0.33333333)
(0.16666667 -5.9714258e-06 -8.1673623e-15 0.16666667 -2.093915e-18 -0.33333333)
(0.16666667 -3.3111128e-06 -4.6908202e-19 0.16666667 5.0377777e-17 -0.33333333)
(0.16666667 -5.8303914e-07 -1.4110461e-15 0.16666667 2.2916755e-16 -0.33333333)
(0.16666667 2.163981e-06 -1.4506138e-15 0.16666667 1.2519764e-16 -0.33333333)
(0.16666666 4.9416882e-06 3.951577e-19 0.16666667 -5.3723539e-17 -0.33333333)
(0.16666666 7.7737417e-06 -2.380802e-26 0.16666667 3.7354874e-24 -0.33333333)
(0.16666666 1.0638512e-05 -2.5675423e-19 0.16666667 5.8582109e-17 -0.33333333)
(0.16666666 1.3528713e-05 -1.6478814e-15 0.16666667 2.3755947e-16 -0.33333333)
(0.16666666 1.6487246e-05 -1.7020213e-15 0.16666667 1.1587691e-16 -0.33333333)
(0.16666666 1.9466485e-05 1.5352193e-19 0.16666668 -6.3246242e-17 -0.33333333)
(0.16666666 2.2466675e-05 -4.7149683e-23 0.16666668 -2.2648083e-26 -0.33333333)
(0.16666665 2.5552149e-05 -1.1925301e-26 0.16666668 -5.9942501e-30 -0.33333333)
(0.16666665 2.8681093e-05 -1.1046375e-19 0.16666668 -7.1745154e-17 -0.33333333)
(0.16666665 3.1846364e-05 2.0280854e-15 0.16666668 -2.5100193e-16 -0.33333333)
(0.16666665 3.5098383e-05 -4.3478535e-15 0.16666669 -1.0456031e-16 -0.33333333)
(0.16666665 3.839329e-05 -6.6993207e-15 0.16666669 7.4584983e-17 -0.33333333)
(0.16666664 4.1753272e-05 4.5557893e-19 0.16666669 8.310688e-17 -0.33333333)
(0.16666664 4.5209361e-05 -2.3574374e-15 0.16666669 1.7600342e-16 -0.33333333)
(0.16666664 4.8739343e-05 -2.6927909e-18 0.1666667 -1.7830984e-16 -0.33333333)
(0.16666663 5.2348703e-05 2.5591415e-15 0.1666667 -1.7586171e-16 -0.33333333)
(0.16666663 5.6082204e-05 8.0730741e-19 0.1666667 9.5807435e-17 -0.33333333)
(0.16666663 5.9899826e-05 3.8433454e-22 0.16666671 -2.5814829e-23 -0.33333333)
(0.16666662 6.3854025e-05 -1.2003005e-21 0.16666671 -1.2531614e-24 -0.33333333)
(0.16666662 6.7927128e-05 -8.5064463e-22 0.16666672 1.723568e-23 -0.33333333)
(0.16666661 7.2120085e-05 1.7717775e-21 0.16666672 2.5925041e-23 -0.33333333)
(0.16666661 7.6489355e-05 -2.3033205e-21 0.16666673 -4.6756056e-23 -0.33333333)
(0.1666666 8.0990245e-05 1.4341917e-21 0.16666673 3.5275961e-23 -0.33333333)
(0.1666666 8.5686728e-05 1.018915e-21 0.16666674 -4.8982123e-24 -0.33333333)
(0.16666659 9.0583591e-05 2.1097598e-21 0.16666674 -4.8104965e-23 -0.33333333)
(0.16666658 9.5707849e-05 -1.0988096e-21 0.16666675 2.5970351e-23 -0.33333333)
(0.16666658 0.00010106335 -2.9478362e-18 0.16666676 -1.5284022e-16 -0.33333333)
(0.16666657 0.00010672033 4.3938729e-15 0.16666677 -3.33683e-16 -0.33333333)
(0.16666656 0.00011264907 4.6555507e-15 0.16666677 1.6369574e-16 -0.33333333)
(0.16666655 0.00011893737 -4.871918e-15 0.16666678 5.2644558e-16 -0.33333333)
(0.16666654 0.00012558279 -5.1772006e-15 0.16666679 -1.4349197e-17 -0.33333333)
(0.16666653 0.00013266129 -9.3490559e-18 0.16666681 -3.9520086e-16 -0.33333333)
(0.16666651 0.00014012783 5.7532438e-15 0.16666682 -3.8069221e-16 -0.33333333)
(0.1666665 0.00014822661 6.1509132e-15 0.16666683 4.9672888e-16 -0.33333333)
(0.16666648 0.00015675044 -1.2940684e-14 0.16666685 1.0449342e-15 -0.33333333)
(0.16666647 0.00016607592 -1.3866852e-14 0.16666687 -1.6189638e-16 -0.33333333)
(0.16666645 0.00017592206 -2.26309e-17 0.16666689 -7.9796899e-16 -0.33333333)
(0.16666642 0.00018682452 5.5929318e-14 0.16666691 -3.8007356e-16 -0.33333333)
(0.1666664 0.00019831898 5.9801383e-14 0.16666694 2.1791093e-16 -0.33333333)
(0.16666637 0.00021130466 1.0009693e-17 0.16666696 3.2410909e-16 -0.33333333)
(0.16666634 0.00022472935 -5.4139168e-21 0.166667 6.1746099e-23 -0.33333333)
(0.1666663 0.00024052791 -1.8450212e-20 0.16666703 -7.1706244e-19 -0.33333333)
(0.16666626 0.00025623293 3.4297687e-14 0.16666707 -1.141461e-16 -0.33333333)
(0.16666621 0.0002758143 3.7228419e-14 0.16666713 -1.0464732e-16 -0.33333333)
(0.16666616 0.00029400035 -1.7540495e-17 0.16666718 -4.7816413e-16 -0.33333333)
(0.16666609 0.00031876384 -2.952885e-14 0.16666724 -5.8325625e-16 -0.33333333)
(0.16666603 0.0003392902 -3.2184334e-14 0.1666673 4.9075968e-16 -0.33333333)
(0.16666594 0.00037136142 2.3752219e-17 0.16666739 6.1617761e-16 -0.33333333)
(0.16666588 0.0003925533 -2.0947828e-20 0.16666746 -1.0057311e-22 -0.33333333)
(0.16666577 0.00043532719 -4.7116966e-23 0.16666757 8.1107461e-22 -0.33333333)
(0.16666572 0.00045174121 1.3775485e-13 0.16666761 3.5083932e-16 -0.33333333)
(0.1666656 0.00051026916 1.5143048e-13 0.16666774 3.9469225e-16 -0.33333333)
(0.16666564 0.00050788576 -7.477508e-20 0.16666769 -7.7005389e-22 -0.33333333)
(0.16666555 0.00058915079 4.8797738e-20 0.16666778 1.1568649e-22 -0.33333333)
(0.16666579 0.00053672978 9.5288563e-14 0.16666754 2.0605474e-16 -0.33333333)
(0.16666585 0.00065003835 1.0193781e-13 0.16666748 1.943928e-16 -0.33333333)
(0.16666633 0.0004963833 -3.7533937e-20 0.16666701 -9.2235335e-23 -0.33333333)
(0.16666667 0.00065238401 9.4985934e-20 0.16666667 7.8568613e-22 -0.33333333)
(0.16666695 0.00035566959 5.2071993e-20 0.16666638 -1.2539218e-21 -0.33333333)
(0.16666756 0.00057019135 -1.8472872e-13 0.16666577 1.8376194e-16 -0.33333333)
(0.16666564 0.00010296978 -1.5463335e-13 0.1666677 -5.670176e-16 -0.33333333)
(0.16666379 2.6602469e-05 -1.9753417e-16 0.16666954 -1.3555966e-17 -0.33333333)
(0.16678099 -0.0005162046 -1.9709987e-16 0.16655234 -2.3105554e-17 -0.33333333)
(0.16691748 -0.00074350562 2.82511e-16 0.16641585 4.9484639e-17 -0.33333333)
(0.16722263 -0.0012127331 2.5350259e-18 0.16611071 -6.5737804e-18 -0.33333333)
(0.16756392 -0.0015308378 -1.3203455e-16 0.16576941 7.0450661e-16 -0.33333333)
(0.16815753 -0.0020638 4.4026076e-14 0.1651758 1.5822591e-14 -0.33333333)
(0.16896599 -0.0026359079 -6.6282423e-14 0.16436734 -2.4637287e-14 -0.33333333)
(0.17059815 -0.0037845129 -1.5617849e-13 0.16273518 -6.8404109e-14 -0.33333333)
(0.17487249 -0.0066669011 1.8546734e-15 0.15846084 -4.2248324e-15 -0.33333333)
(0.18374733 0.46780484 1.5429516e-12 0.14958597 5.0170952e-12 -0.3333333)
(0.15866328 0.0048753398 2.0852314e-13 0.17467006 1.1835028e-13 -0.33333333)
(0.16316749 0.0018233452 1.6239287e-13 0.17016585 9.6974343e-14 -0.33333333)
(0.16478539 0.00085330165 6.7749688e-14 0.16854795 4.3131054e-14 -0.33333333)
(0.165637 0.00041256741 1.5650196e-16 0.16769633 1.0590742e-16 -0.33333333)
(0.16619269 0.00017010071 -8.4002523e-18 0.16714064 3.5594384e-18 -0.33333333)
(0.16657488 2.9941832e-05 1.752419e-16 0.16675845 1.2670505e-16 -0.33333333)
(0.16686988 -6.1239636e-05 -2.0400027e-16 0.16646345 -1.5118314e-16 -0.33333333)
(0.16708097 -0.00011741248 -1.3009983e-16 0.16625237 -1.6918589e-17 -0.33333333)
(0.16725413 -0.00015968251 -1.7011472e-15 0.1660792 -1.382241e-15 -0.33333333)
(0.16736071 -0.00018457327 -1.3371552e-15 0.16597263 -1.241299e-15 -0.33333333)
(0.16743463 -0.00020152308 -1.1938563e-16 0.16589871 -1.4573803e-16 -0.33333333)
(0.16746759 -0.00020654187 -6.1440175e-17 0.16586574 -4.6208247e-17 -0.33333333)
(0.16751926 -0.00021327603 -3.6962319e-17 0.16581408 1.0713346e-17 -0.33333333)
(0.16757168 -0.0002185202 -8.3573316e-16 0.16576165 -7.7657563e-16 -0.33333333)
(0.16762282 -0.00022110586 -6.1806592e-16 0.16571051 -6.7586317e-16 -0.33333333)
(0.16768702 -0.00022391768 2.6235367e-17 0.16564631 -6.6399591e-18 -0.33333333)
(0.1677537 -0.00022412034 5.6204529e-19 0.16557963 -1.3140304e-19 -0.33333333)
(0.16784576 -0.00022598739 -2.8920657e-17 0.16548757 -2.3781215e-17 -0.33333333)
(0.16793722 -0.00022344201 1.5291971e-17 0.16539611 -3.0070643e-18 -0.33333333)
(0.16809266 -0.00022945167 -8.0153986e-16 0.16524068 -7.0949037e-16 -0.33333333)
(0.16826183 -0.00024775445 -1.3219626e-15 0.16507151 -1.1340873e-15 -0.33333333)
(0.16838905 -0.00027861627 -1.0650588e-15 0.16494428 -8.8875941e-16 -0.33333333)
(0.16849655 -0.00033061117 -4.6446089e-16 0.16483678 -3.7319049e-16 -0.33333333)
(0.16856025 -0.00040356022 -1.1400099e-17 0.16477309 2.4837194e-18 -0.33333333)
(0.1686185 -0.00051100342 2.8119459e-16 0.16471483 2.1892779e-16 -0.33333333)
(0.16859442 -0.00063850654 4.2407396e-16 0.16473891 3.0501584e-16 -0.33333333)
(0.16856297 -0.00081795556 2.9363579e-16 0.16477037 1.8347433e-16 -0.33333333)
(0.16832696 -0.00096159246 8.2069193e-17 0.16500638 4.3285796e-17 -0.33333333)
(0.16804649 -0.0011185602 5.6955181e-17 0.16528684 -1.2959966e-16 -0.33333333)
(0.16742356 -0.00091684647 8.6186798e-17 0.16590977 -1.2594746e-16 -0.33333333)
(0.1669538 -0.00054573924 -4.5759088e-16 0.16637953 -1.1031841e-16 -0.33333333)
(0.16664956 5.4560373e-05 -7.6767138e-16 0.16668377 -1.18005e-16 -0.33333333)
(0.16666097 3.5195029e-05 -7.7005501e-19 0.16667236 -7.919534e-20 -0.33333333)
(0.16662528 0.00069257091 1.0020364e-19 0.16670806 -6.260078e-18 -0.33333333)
(0.16666805 -0.00049235748 3.0380586e-16 0.16666529 -3.1988629e-16 -0.33333333)
(0.16668038 0.0013722829 8.666155e-16 0.16665295 -2.9786602e-16 -0.33333333)
(0.16666659 1.3227466e-05 3.1768833e-20 0.16666675 -2.1462651e-18 -0.33333333)
(0.16666304 -0.001097122 9.3232599e-16 0.16667029 -2.6068666e-16 -0.33333333)
(0.16670783 0.00073776656 -1.3805165e-16 0.1666255 -9.0419062e-16 -0.33333333)
(0.16658638 -0.0005480326 -6.2715367e-16 0.16674695 -7.0411367e-16 -0.33333333)
(0.16679473 0.00044590437 3.7239666e-16 0.16653861 -2.0460437e-16 -0.33333333)
(0.16793959 0.0032966684 5.814694e-15 0.16539374 -7.8500675e-16 -0.33333333)
(0.164229 -0.0027066709 -4.0857885e-15 0.16910433 1.5301853e-15 -0.33333333)
(0.16538643 -0.0010231602 1.4531203e-15 0.1679469 -7.0703927e-16 -0.33333333)
(0.16552046 -0.00066829781 4.9909622e-16 0.16781287 -4.6421299e-16 -0.33333333)
(0.16572387 -0.00041074963 6.2962434e-16 0.16760947 -5.3503159e-16 -0.33333333)
(0.1658827 -0.000261804 2.4297849e-15 0.16745063 -1.7031695e-15 -0.33333333)
(0.16595577 -0.00018595012 -1.7658879e-17 0.16737756 2.0291494e-17 -0.33333333)
(0.16597523 -0.00014655804 1.3335287e-16 0.16735811 3.1424889e-17 -0.33333333)
(0.16599095 -0.00012124647 -7.5579118e-15 0.16734239 7.3899265e-15 -0.33333333)
(0.16601795 -0.00010432419 9.4903049e-16 0.16731539 -6.6929046e-17 -0.33333333)
(0.16608901 -8.9482832e-05 6.7800908e-15 0.16724432 -6.1345146e-15 -0.33333333)
(0.16621722 -7.2233396e-05 -9.4760828e-15 0.16711612 7.611178e-15 -0.33333333)
(0.16633388 -5.8347659e-05 -6.0272845e-15 0.16699946 4.8396953e-15 -0.33333333)
(0.16644452 -4.2355124e-05 -3.2178903e-15 0.16688881 2.6093499e-15 -0.33333333)
(0.16655036 -2.3800684e-05 -3.2696314e-15 0.16678297 2.6153765e-15 -0.33333333)
(0.16662998 -7.9679674e-06 5.302815e-17 0.16670335 5.9565648e-17 -0.33333333)
(0.16669634 6.7737258e-06 9.611603e-20 0.16663699 3.0733054e-20 -0.33333333)
(0.16672893 1.4800602e-05 -3.4978105e-17 0.16660441 3.4181392e-17 -0.33333333)
(0.16673409 1.6567136e-05 8.4056512e-17 0.16659925 -6.4713806e-17 -0.33333333)
(0.16671062 1.1077548e-05 2.5774065e-16 0.16662271 -2.0781101e-16 -0.33333333)
(0.16665309 -3.4882448e-06 6.6419476e-17 0.16668025 -5.3992413e-17 -0.33333333)
(0.16658208 -2.2027585e-05 -3.8974829e-15 0.16675125 3.0193594e-15 -0.33333333)
(0.16652165 -3.864233e-05 -3.7076044e-15 0.16681168 2.858483e-15 -0.33333333)
(0.1664679 -5.5292823e-05 -6.4069165e-17 0.16686543 4.7079675e-17 -0.33333333)
(0.16642305 -7.2160515e-05 1.5834244e-16 0.16691029 -1.1087279e-16 -0.33333333)
(0.16638765 -8.9610204e-05 6.0173096e-17 0.16694568 -4.4136653e-17 -0.33333333)
(0.16636455 -0.00010692356 -6.5564305e-17 0.16696878 4.0819879e-17 -0.33333333)
(0.16635539 -0.00012317885 5.9756907e-17 0.16697794 -3.8747092e-17 -0.33333333)
(0.16636573 -0.00013494874 1.1440277e-18 0.16696761 -1.0967752e-16 -0.33333333)
(0.16639934 -0.00013764088 -3.7596273e-15 0.16693399 1.9915874e-15 -0.33333333)
(0.16645416 -0.00012716377 -3.821588e-15 0.16687917 1.9778004e-15 -0.33333333)
(0.16650153 -0.00011569215 -4.0307334e-15 0.1668318 1.697511e-15 -0.33333333)
(0.16655205 -9.4199971e-05 6.6182952e-15 0.16678129 -4.1099673e-15 -0.33333333)
(0.16659417 -7.0255306e-05 1.2275645e-14 0.16673917 -5.2236885e-15 -0.33333333)
(0.16664198 -2.8471812e-05 -1.3061074e-14 0.16669136 6.1311436e-15 -0.33333333)
(0.16666767 1.4019906e-06 -1.484988e-14 0.16666566 5.1539501e-15 -0.33333333)
(0.16670808 7.1246449e-05 8.8985051e-15 0.16662526 -2.3703175e-15 -0.33333333)
(0.16669399 6.0236646e-05 -8.0367248e-15 0.16663934 2.7703796e-15 -0.33333333)
(0.16672597 0.00017749731 -1.9842886e-14 0.16660737 3.4764133e-15 -0.33333333)
(0.16666043 -2.8343365e-05 -2.2044203e-14 0.16667291 1.553204e-15 -0.33333333)
(0.16670637 0.00034102228 -3.8268792e-14 0.16662696 1.6056496e-15 -0.33333333)
(0.16666324 -0.00011716416 -1.1963485e-14 0.1666701 2.8145537e-16 -0.33333333)
(0.16666914 0.0002124217 -9.9082579e-18 0.16666419 2.39864e-16 -0.33333333)
(0.16666684 2.1964882e-05 5.4895448e-15 0.16666649 -4.3227758e-17 -0.33333333)
(0.16666725 9.5517341e-05 1.4413527e-14 0.16666608 -8.7348214e-17 -0.33333333)
(0.1666669 4.760939e-05 8.7593231e-15 0.16666644 -1.2305607e-16 -0.33333333)
(0.16666693 6.7452198e-05 3.8197049e-15 0.1666664 -4.3548704e-16 -0.33333333)
(0.16666684 5.2417917e-05 7.3811707e-15 0.16666649 -2.9926466e-16 -0.33333333)
(0.16666683 5.8175758e-05 3.6148419e-15 0.1666665 5.7152376e-17 -0.33333333)
(0.1666668 5.2993053e-05 1.8736739e-21 0.16666654 -4.4628211e-24 -0.33333333)
(0.16666678 5.4633603e-05 -6.6555267e-15 0.16666655 -1.1112389e-16 -0.33333333)
(0.16666677 5.2636257e-05 -7.7268658e-15 0.16666657 -4.4620221e-16 -0.33333333)
(0.16666676 5.2955608e-05 -1.2357795e-15 0.16666658 -1.6091263e-16 -0.33333333)
(0.16666675 5.1996073e-05 2.134227e-15 0.16666659 2.2297999e-16 -0.33333333)
(0.16666674 5.1808229e-05 1.0833627e-14 0.16666659 -7.0887496e-16 -0.33333333)
(0.16666673 5.1122507e-05 1.5362496e-14 0.1666666 -1.0136171e-15 -0.33333333)
(0.16666672 5.0666237e-05 6.6783361e-15 0.16666661 -2.5451545e-16 -0.33333333)
(0.16666672 4.9975902e-05 -4.1271511e-21 0.16666662 1.1380667e-19 -0.33333333)
(0.16666671 4.9314626e-05 2.8848681e-15 0.16666662 -2.5087413e-18 -0.33333333)
(0.16666671 4.85114e-05 2.8748928e-15 0.16666663 -2.2211153e-18 -0.33333333)
(0.1666667 4.7663685e-05 5.6788846e-22 0.16666663 1.4395876e-23 -0.33333333)
(0.1666667 4.6705606e-05 1.7550999e-18 0.16666664 -5.4147974e-17 -0.33333333)
(0.16666669 4.5681692e-05 -1.9842578e-15 0.16666664 -4.4118831e-16 -0.33333333)
(0.16666669 4.4572129e-05 4.1620303e-15 0.16666665 -1.5546428e-15 -0.33333333)
(0.16666668 4.339226e-05 6.1679384e-15 0.16666665 -9.5404765e-16 -0.33333333)
(0.16666668 4.2140365e-05 5.8214592e-15 0.16666665 2.1303701e-16 -0.33333333)
(0.16666668 4.0819255e-05 6.8249153e-18 0.16666666 -1.3658144e-21 -0.33333333)
(0.16666667 3.9432402e-05 -1.1877829e-14 0.16666666 1.543721e-18 -0.33333333)
(0.16666667 3.7981165e-05 -6.0100417e-15 0.16666666 3.7326196e-19 -0.33333333)
(0.16666667 3.6468824e-05 -3.0455565e-15 0.16666667 -1.0906694e-20 -0.33333333)
(0.16666667 3.4881064e-05 -3.0932391e-15 0.16666667 5.8147958e-17 -0.33333333)
(0.16666666 3.322372e-05 2.1726751e-15 0.16666667 2.3155653e-16 -0.33333333)
(0.16666666 3.149973e-05 8.580348e-15 0.16666667 1.1503984e-16 -0.33333333)
(0.16666666 2.9728486e-05 6.4882309e-15 0.16666667 -5.7876242e-17 -0.33333333)
(0.16666666 2.7892757e-05 1.5679963e-21 0.16666667 1.4259586e-22 -0.33333333)
(0.16666666 2.601682e-05 -3.3620258e-15 0.16666668 -6.500917e-17 -0.33333333)
(0.16666666 2.4089651e-05 -5.8246726e-15 0.16666668 -2.4001081e-16 -0.33333333)
(0.16666666 2.2102744e-05 -2.4441617e-15 0.16666668 -1.0885813e-16 -0.33333333)
(0.16666666 2.0090835e-05 2.2187969e-18 0.16666668 -1.3793655e-16 -0.33333333)
(0.16666666 1.8021363e-05 1.0440124e-14 0.16666668 -1.2530919e-15 -0.33333333)
(0.16666666 1.5897982e-05 1.0687576e-14 0.16666668 -8.3563083e-16 -0.33333333)
(0.16666666 1.376158e-05 -3.1499148e-18 0.16666668 2.1387342e-16 -0.33333333)
(0.16666666 1.1556648e-05 1.9217263e-18 0.16666668 -1.5034214e-16 -0.33333333)
(0.16666666 9.32354e-06 3.6245361e-15 0.16666667 -8.5236445e-16 -0.33333333)
(0.16666666 7.0675045e-06 3.7178093e-15 0.16666667 -5.432448e-16 -0.33333333)
(0.16666666 4.7426904e-06 8.655365e-15 0.16666667 8.5355078e-17 -0.33333333)
(0.16666666 2.4171047e-06 5.8228933e-15 0.16666667 -2.5187086e-16 -0.33333333)
(0.16666667 3.083806e-08 -3.1923108e-15 0.16666667 -9.1798337e-17 -0.33333333)
(0.16666667 -2.3915657e-06 -7.0470448e-19 0.16666666 8.7283348e-17 -0.33333333)
(0.16666667 -4.8360042e-06 -6.638181e-22 0.16666666 -7.302577e-25 -0.33333333)
(0.16666668 -7.326738e-06 4.934042e-19 0.16666666 -9.5299753e-17 -0.33333333)
(0.16666668 -9.8709459e-06 1.6044639e-15 0.16666665 -2.7008705e-16 -0.33333333)
(0.16666668 -1.2424071e-05 1.6588394e-15 0.16666665 -7.2017907e-17 -0.33333333)
(0.16666669 -1.5030351e-05 -3.4210023e-19 0.16666665 1.0298971e-16 -0.33333333)
(0.16666669 -1.7690546e-05 -2.7617106e-24 0.16666664 -3.178868e-24 -0.33333333)
(0.1666667 -2.0371165e-05 -2.0174926e-27 0.16666664 9.3111986e-25 -0.33333333)
(0.1666667 -2.3122775e-05 6.3368636e-20 0.16666663 1.1699448e-16 -0.33333333)
(0.16666671 -2.5936809e-05 -1.9823203e-15 0.16666663 1.7115397e-16 -0.33333333)
(0.16666671 -2.8774706e-05 4.2517897e-15 0.16666662 -4.2032657e-16 -0.33333333)
(0.16666672 -3.1697186e-05 6.5557755e-15 0.16666662 -3.4147329e-16 -0.33333333)
(0.16666672 -3.4688774e-05 -1.4454272e-19 0.16666661 -2.5060773e-18 -0.33333333)
(0.16666673 -3.7732684e-05 -5.2094886e-15 0.1666666 -1.8263725e-16 -0.33333333)
(0.16666674 -4.0865978e-05 7.5377702e-18 0.1666666 2.9149941e-16 -0.33333333)
(0.16666675 -4.4100989e-05 5.6509586e-15 0.16666659 1.8428858e-16 -0.33333333)
(0.16666675 -4.7398427e-05 -1.1236418e-18 0.16666658 -1.5696677e-16 -0.33333333)
(0.16666676 -5.0831714e-05 -8.8742221e-15 0.16666657 -1.6310636e-17 -0.33333333)
(0.16666677 -5.4350159e-05 -9.2604618e-15 0.16666656 -1.7485945e-17 -0.33333333)
(0.16666678 -5.7992762e-05 2.1440292e-21 0.16666655 2.8291589e-23 -0.33333333)
(0.16666679 -6.1786066e-05 -1.0123154e-14 0.16666654 -2.0160247e-17 -0.33333333)
(0.16666681 -6.5681178e-05 -2.1184258e-14 0.16666653 -4.3320938e-17 -0.33333333)
(0.16666682 -6.9770544e-05 -1.1092377e-14 0.16666652 -2.3288299e-17 -0.33333333)
(0.16666683 -7.4014459e-05 2.3236863e-14 0.1666665 5.0087419e-17 -0.33333333)
(0.16666685 -7.8453663e-05 2.4371392e-14 0.16666649 5.3946597e-17 -0.33333333)
(0.16666686 -8.3097811e-05 1.1085397e-21 0.16666647 -1.30009e-22 -0.33333333)
(0.16666688 -8.8005977e-05 4.431007e-18 0.16666645 2.5229926e-16 -0.33333333)
(0.1666669 -9.3146653e-05 9.8332982e-15 0.16666643 4.6542124e-16 -0.33333333)
(0.16666692 -9.863008e-05 -1.9573482e-14 0.16666641 -4.2834298e-16 -0.33333333)
(0.16666694 -0.00010440167 -4.2498265e-14 0.16666639 -8.7226677e-16 -0.33333333)
(0.16666697 -0.00011055576 -1.1543975e-14 0.16666637 1.0146873e-16 -0.33333333)
(0.166667 -0.00011706599 1.7710501e-14 0.16666634 7.0503779e-16 -0.33333333)
(0.16666703 -0.00012413725 3.1716568e-14 0.16666631 6.1579137e-16 -0.33333333)
(0.16666706 -0.00013154318 5.3502119e-14 0.16666627 -7.8043474e-16 -0.33333333)
(0.1666671 -0.00013972512 5.5223651e-14 0.16666623 -1.3762574e-15 -0.33333333)
(0.16666714 -0.00014831642 1.3848824e-14 0.16666619 5.190138e-16 -0.33333333)
(0.16666719 -0.00015794383 5.8800089e-17 0.16666614 2.2417202e-15 -0.33333333)
(0.16666724 -0.00016801949 -5.6419816e-14 0.16666609 2.1530278e-15 -0.33333333)
(0.16666731 -0.00017957879 -6.0638498e-14 0.16666603 -8.4385835e-16 -0.33333333)
(0.16666737 -0.00019141732 -4.6498893e-17 0.16666596 -1.6484937e-15 -0.33333333)
(0.16666746 -0.00020565341 -2.9165648e-20 0.16666588 5.4395715e-23 -0.33333333)
(0.16666754 -0.00021958167 1.9962696e-17 0.16666579 6.4562402e-16 -0.33333333)
(0.16666765 -0.00023759707 2.1869391e-15 0.16666568 8.9166221e-16 -0.33333333)
(0.16666776 -0.0002538591 2.2657946e-15 0.16666557 -5.6119491e-16 -0.33333333)
(0.16666791 -0.00027734965 -2.6648378e-17 0.16666542 -8.2389044e-16 -0.33333333)
(0.16666805 -0.00029591444 7.9572229e-14 0.16666528 3.480461e-16 -0.33333333)
(0.16666825 -0.00032755702 8.728966e-14 0.16666508 3.9434268e-16 -0.33333333)
(0.1666684 -0.00034726056 -4.7931156e-33 0.16666493 -1.3783013e-31 -0.33333333)
(0.16666868 -0.00039174467 5.7728821e-20 0.16666465 2.7426098e-22 -0.33333333)
(0.1666688 -0.00040817697 -1.4414011e-13 0.16666453 1.9991299e-15 -0.33333333)
(0.16666915 -0.00047363616 -1.4983324e-13 0.16666418 3.0032116e-15 -0.33333333)
(0.16666909 -0.00047425769 9.5984094e-15 0.16666425 -2.5044447e-15 -0.33333333)
(0.16666943 -0.00057361453 -1.4367326e-16 0.16666391 -3.6146532e-15 -0.33333333)
(0.16666886 -0.00052746445 8.5811862e-17 0.16666447 2.0198819e-15 -0.33333333)
(0.16666887 -0.00068018768 -1.0862391e-13 0.16666446 2.2536752e-15 -0.33333333)
(0.16666754 -0.00052369103 -1.1802716e-13 0.16666579 -2.0706852e-15 -0.33333333)
(0.16666658 -0.00075402905 -1.1223843e-16 0.16666676 -2.3136318e-15 -0.33333333)
(0.16666551 -0.00040402829 2.9328537e-20 0.16666782 1.3753909e-21 -0.33333333)
(0.16666293 -0.00074005198 -2.4384459e-16 0.1666704 -4.3166158e-15 -0.33333333)
(0.16666524 -0.00017968412 2.0668532e-13 0.16666809 -6.5249583e-15 -0.33333333)
(0.16666774 -0.00050568787 1.6964114e-13 0.16666559 1.767868e-15 -0.33333333)
(0.16664271 0.00022826261 1.5283059e-13 0.16669062 1.0538911e-14 -0.33333333)
(0.16659763 0.00031170109 1.4919989e-13 0.16673571 1.6327775e-14 -0.33333333)
(0.16636459 0.00088854015 -3.0556863e-16 0.16696875 -4.9503014e-17 -0.33333333)
(0.16614787 0.0011164819 -3.4118651e-16 0.16718546 -7.0331875e-17 -0.33333333)
(0.16567778 0.001656859 -2.1486508e-16 0.16765555 -7.1205935e-17 -0.33333333)
(0.16512141 0.002085327 -4.8423562e-14 0.16821192 -1.9977653e-14 -0.33333333)
(0.16403608 0.0029053456 7.8991822e-14 0.16929726 2.6730486e-14 -0.33333333)
(0.16187526 0.0043151323 1.9293845e-13 0.17145808 9.7300395e-14 -0.33333333)
(0.15220462 0.0096174138 -8.7257996e-15 0.18112871 1.0972119e-14 -0.33333333)
(0.18266664 -0.014953419 -2.9973e-13 0.1506667 -9.8377895e-14 -0.33333333)
(0.1718292 -0.0034166783 -1.5107094e-13 0.16150413 -7.1507069e-14 -0.33333333)
(0.16937435 -0.0014893344 -1.3651231e-13 0.16395898 -7.6246972e-14 -0.33333333)
(0.16823667 -0.00074169593 -5.8541006e-14 0.16509666 -3.8189806e-14 -0.33333333)
(0.16755876 -0.00036938033 6.8296704e-16 0.16577457 -4.9499976e-16 -0.33333333)
(0.16710291 -0.00016090194 6.5629357e-18 0.16623043 -2.8539733e-18 -0.33333333)
(0.16676541 -3.2966661e-05 -1.5957268e-16 0.16656793 -1.1917965e-16 -0.33333333)