/*--------------------------------*- C++ -*----------------------------------*\
| =========                 |                                                 |
| \\      /  F ield         | OpenFOAM: The Open Source CFD Toolbox           |
|  \\    /   O peration     | Version:  2.4.0                                 |
|   \\  /    A nd           | Web:      www.OpenFOAM.org                      |
|    \\/     M anipulation  |                                                 |
\*---------------------------------------------------------------------------*/
FoamFile
{
    version     2.0;
    format      ascii;
    class       volScalarField;
    location    "10000";
    object      k;
}
// * * * * * * * * * * * * * * * * * * * * * * * * * * * * * * * * * * * * * //

dimensions      [0 2 -2 0 0 0 0];

internalField   nonuniform List<scalar> 
9793
(
0.037538644
0.037288082
0.037026819
0.036756141
0.036477244
0.036147902
0.035900472
0.03564325
0.035377545
0.035104565
0.034825454
0.034541279
0.034253048
0.033961759
0.033668475
0.033373432
0.033076152
0.032776052
0.032472565
0.032165165
0.031853383
0.031536808
0.031215087
0.030887953
0.030555213
0.030216739
0.029872408
0.0295221
0.029167298
0.028810351
0.02845359
0.028099237
0.027749216
0.027405919
0.027073956
0.026748622
0.026434449
0.02613574
0.025857837
0.025607157
0.025392166
0.025221845
0.036291775
0.036222089
0.03613063
0.036018222
0.035885839
0.035734301
0.035564409
0.035376904
0.035173424
0.034956016
0.034726483
0.034486465
0.034237496
0.033980877
0.033717797
0.033449373
0.033176632
0.032900537
0.032622033
0.032342115
0.032060994
0.031778216
0.031493226
0.031205492
0.030914514
0.030619848
0.030321099
0.030017921
0.029710046
0.029397261
0.029079411
0.028756336
0.028427871
0.028095322
0.027760793
0.027426379
0.027094046
0.026765528
0.026443592
0.026132132
0.025826922
0.025532183
0.025252035
0.024991489
0.02475656
0.024555194
0.024395844
0.034798905
0.034732114
0.034644194
0.034536097
0.034408722
0.034262929
0.03409957
0.03391944
0.033724165
0.033515836
0.033296222
0.033066921
0.03282943
0.032585014
0.032334817
0.032079901
0.03182124
0.031559734
0.031296261
0.031031739
0.030766353
0.03049967
0.030231165
0.029960337
0.029686713
0.029409869
0.029129427
0.028845052
0.028556472
0.028263469
0.027965865
0.027663479
0.027356112
0.027044915
0.026731767
0.026418531
0.026106904
0.025798908
0.025498705
0.025206099
0.024919915
0.0246437
0.024381294
0.024137349
0.023917467
0.023729077
0.023580113
0.033362598
0.033363784
0.033342986
0.03330044
0.033237193
0.033153816
0.033051257
0.032930403
0.032792107
0.032637229
0.032466565
0.032281681
0.032084676
0.03187723
0.031660857
0.031436978
0.031206797
0.030971377
0.030731713
0.030488708
0.030243192
0.029995966
0.029747863
0.029499044
0.029249097
0.028997531
0.028743876
0.028487688
0.02822857
0.027966163
0.027700149
0.027430262
0.027156285
0.026878034
0.026595313
0.026307901
0.026016806
0.025723704
0.025430241
0.025137977
0.02484972
0.024570554
0.02429599
0.024027939
0.023769463
0.023524054
0.023296
0.023090495
0.022914464
0.022775333
0.031886767
0.031886467
0.031865743
0.031824903
0.031764566
0.031685504
0.031588569
0.031474605
0.031344424
0.031198841
0.031038598
0.030865211
0.030680688
0.030486534
0.030284165
0.030074903
0.029859855
0.029640007
0.029416263
0.02918944
0.028960288
0.028729528
0.028497911
0.028265573
0.028032133
0.027797137
0.02756015
0.027320767
0.02707862
0.02683338
0.026584751
0.026332486
0.026076374
0.025816233
0.025551857
0.025283004
0.025010548
0.024735989
0.024460837
0.024187064
0.023918877
0.023658401
0.023401672
0.023151181
0.022909791
0.022680701
0.022467863
0.022276087
0.022111813
0.021981982
0.021888017
0.021827685
0.021796978
0.030454999
0.030452343
0.030431108
0.030391073
0.030333072
0.030257853
0.030166209
0.030058933
0.029936779
0.029800505
0.029650726
0.029489099
0.029317169
0.029136427
0.028948141
0.028753504
0.028553517
0.028349053
0.028140925
0.027929863
0.027716537
0.027501594
0.02728571
0.02706901
0.026851147
0.026631713
0.026410317
0.026186596
0.025960221
0.025730897
0.025498359
0.02526238
0.025022763
0.024779322
0.024531838
0.024280047
0.024024718
0.02376726
0.023509388
0.023254219
0.023006609
0.022763157
0.022523555
0.022289956
0.022064974
0.021851514
0.02165321
0.021474505
0.021321381
0.021200318
0.02111268
0.021056427
0.02102786
0.02907632
0.029071068
0.029048306
0.029008618
0.028952601
0.028880911
0.028794263
0.028693372
0.028578927
0.028451607
0.028311965
0.02816157
0.028001703
0.027833791
0.02765889
0.027478074
0.027292234
0.027102158
0.026908563
0.0267121
0.026513367
0.026312954
0.026111481
0.025909068
0.025705414
0.025500161
0.025292969
0.02508352
0.024871528
0.024656735
0.024438904
0.024217829
0.023993314
0.023765164
0.023533146
0.023296997
0.023057489
0.022816251
0.022576013
0.022341219
0.022111888
0.021884902
0.021661778
0.021444418
0.021235152
0.021036606
0.020852117
0.020685788
0.020543178
0.020430336
0.020348573
0.020296034
0.020269316
0.027369297
0.027455138
0.027542904
0.027618605
0.027677712
0.02771988
0.027745095
0.027753023
0.027745004
0.027720839
0.027681353
0.027627076
0.027558575
0.02747648
0.027381429
0.027274045
0.027154915
0.027024708
0.026884499
0.026735633
0.026579257
0.02641641
0.026248022
0.026074887
0.025897683
0.025717059
0.025533608
0.025347873
0.025160413
0.024971804
0.024782173
0.024591263
0.024398773
0.024204407
0.024007895
0.023808989
0.02360746
0.023403091
0.023195682
0.022985033
0.02277094
0.022553193
0.02233167
0.022107481
0.021883165
0.021662682
0.021447645
0.021234522
0.02102362
0.020816417
0.020614611
0.020420295
0.020235863
0.020064392
0.019909682
0.019776902
0.019671704
0.019595352
0.019546169
0.019521026
0.026180849
0.026255678
0.026331692
0.026396373
0.026445864
0.026479967
0.02649875
0.02650278
0.026491817
0.026466404
0.02642698
0.026374044
0.026308121
0.026229786
0.026139618
0.026038203
0.025925948
0.025803746
0.025672301
0.025532853
0.025386366
0.025233892
0.025076149
0.024913873
0.024747709
0.024578251
0.024406042
0.024231607
0.024055463
0.023878152
0.023699825
0.023520265
0.023339206
0.023156404
0.022971614
0.022784618
0.022595201
0.022403153
0.022208274
0.022010374
0.021809315
0.021605081
0.021398062
0.021190374
0.020985566
0.020785129
0.020586497
0.020388737
0.020193015
0.020000703
0.019813332
0.019632814
0.019461355
0.01930181
0.019157714
0.019033884
0.018935613
0.018864124
0.018817902
0.018794071
0.024901524
0.024958132
0.025017395
0.02508036
0.02514661
0.025213687
0.025270041
0.025312329
0.025340465
0.02535452
0.025354192
0.025340125
0.02531272
0.025272457
0.025219841
0.025155377
0.025079604
0.024993059
0.024896436
0.024789977
0.024674072
0.024549683
0.024417983
0.024279661
0.024135578
0.023986558
0.023833306
0.023676364
0.023516306
0.023353629
0.023188893
0.023022561
0.022855151
0.022686791
0.022517321
0.022346495
0.022174096
0.021999897
0.021823691
0.021645268
0.021464429
0.021281017
0.021094973
0.020906464
0.020716001
0.020525079
0.020336618
0.020151109
0.019966625
0.019781917
0.019597901
0.019415727
0.019236641
0.019062046
0.018893711
0.018733689
0.018584645
0.018449885
0.018333917
0.018241715
0.018174463
0.018130788
0.018108033
0.023908899
0.02395847
0.024010219
0.02406454
0.024122284
0.024181493
0.024231178
0.024268021
0.024291825
0.024302597
0.024299816
0.024284025
0.024255738
0.024215465
0.024163701
0.02410093
0.024027652
0.023944352
0.023851471
0.023749605
0.023638834
0.023520014
0.023394172
0.023262207
0.023124838
0.022982929
0.022837078
0.022687866
0.022535823
0.022381448
0.022225199
0.022067532
0.021908939
0.021749543
0.02158918
0.02142764
0.0212647
0.021100154
0.020933804
0.020765477
0.020595063
0.020422602
0.020248458
0.020073453
0.019898724
0.019726568
0.019555689
0.019384576
0.019212267
0.019039571
0.018867469
0.018697017
0.018529364
0.018365812
0.018208014
0.018057892
0.017917949
0.017791288
0.017682145
0.017595212
0.017531633
0.017490152
0.017468302
0.022986017
0.023028681
0.023073465
0.023120537
0.023170825
0.02322265
0.023265759
0.02329705
0.023316301
0.023323505
0.02331862
0.023301833
0.023273444
0.023233836
0.023183426
0.023122641
0.023051939
0.022971766
0.022882362
0.022784417
0.022678285
0.022564553
0.022444095
0.022317971
0.022186898
0.022051589
0.021912568
0.021770491
0.021625853
0.021479151
0.021330764
0.021181133
0.021030718
0.020879655
0.020727774
0.020574883
0.020420775
0.020265282
0.020108281
0.019949745
0.019789866
0.019629113
0.019468534
0.019309526
0.019152496
0.018995468
0.018836703
0.018675944
0.018513945
0.01835156
0.018189698
0.018029337
0.017871547
0.017717543
0.01756888
0.017427362
0.01729535
0.017175764
0.017072598
0.016990291
0.016929944
0.016890399
0.016869348
0.022124645
0.02216113
0.02219958
0.022240087
0.022283563
0.022328531
0.022365448
0.02239144
0.022406301
0.022409992
0.02240257
0.022384175
0.022355037
0.022315471
0.022265838
0.022206513
0.022137913
0.022060454
0.021974499
0.021880491
0.021778792
0.021670105
0.021555298
0.021435172
0.021310434
0.021181757
0.021049699
0.020914789
0.020777513
0.020638325
0.020497631
0.020355834
0.020213362
0.02007034
0.019926636
0.019782093
0.01963659
0.019490071
0.019342657
0.01919464
0.019046765
0.018899735
0.018754936
0.018611013
0.018466732
0.018319295
0.018169242
0.018017255
0.017864106
0.017710594
0.017557567
0.017405939
0.017256711
0.017111028
0.016970351
0.016836384
0.016711356
0.016598025
0.016500164
0.016421983
0.016364536
0.016326747
0.016306444
0.021319882
0.021350864
0.021383621
0.021418229
0.021455542
0.021494207
0.021525351
0.021546326
0.021556995
0.021557185
0.021547184
0.02152704
0.021496965
0.021457236
0.021408172
0.021350111
0.021283433
0.021208522
0.021125739
0.021035471
0.020938068
0.020834214
0.020724737
0.020610362
0.020491745
0.020369514
0.020244193
0.020116261
0.019986166
0.019854329
0.019721136
0.019586969
0.019452238
0.019317096
0.019181479
0.019045353
0.018908789
0.018771961
0.018635432
0.018499574
0.018365726
0.018232974
0.018100086
0.017965716
0.01782863
0.017688573
0.017545985
0.017401577
0.017256095
0.017110296
0.016964976
0.016820995
0.016679294
0.016540953
0.016407353
0.016280103
0.016161314
0.016053595
0.015960517
0.01588608
0.015831293
0.015795143
0.01577558
0.020566659
0.020592874
0.020620685
0.020650161
0.020682092
0.020715207
0.020741244
0.020757754
0.020764584
0.020761738
0.020749339
0.020727537
0.020696537
0.020656601
0.020608025
0.020551121
0.020486242
0.020413745
0.02033397
0.020247275
0.020153986
0.020054749
0.019950337
0.01984142
0.019728608
0.019612487
0.019493546
0.019372231
0.019248962
0.019124144
0.018998162
0.018871404
0.018744296
0.0186171
0.018489903
0.018362888
0.018236352
0.018110496
0.017986464
0.017863411
0.017740344
0.017616624
0.017490377
0.017361807
0.017230708
0.017096912
0.016960789
0.016823005
0.016684261
0.01654527
0.016406782
0.016269605
0.01613463
0.016002873
0.015875643
0.015754463
0.015641335
0.015538731
0.015450036
0.01537906
0.015326761
0.015292182
0.015273376
0.019860277
0.019882343
0.019905857
0.019930883
0.019958151
0.019986454
0.020008088
0.020020792
0.020024348
0.020018885
0.0200045
0.019981351
0.019949643
0.019909635
0.019861611
0.019805868
0.01974274
0.019672563
0.019595657
0.019512358
0.019422972
0.019328104
0.019228478
0.019124721
0.019017402
0.018907076
0.018794212
0.018679241
0.018562575
0.018444619
0.018325816
0.018206605
0.018087458
0.017968891
0.017850992
0.017734093
0.017618612
0.017503879
0.017389109
0.017273965
0.017156737
0.017037624
0.016916359
0.016792892
0.016667101
0.016538851
0.01640848
0.016276616
0.016143919
0.016011059
0.015878744
0.015747736
0.015618876
0.015493125
0.015371726
0.015256119
0.015148209
0.015050338
0.014965723
0.014897994
0.014848064
0.014815019
0.014797003
0.01919727
0.019215666
0.019235385
0.01925649
0.019279658
0.019303734
0.019321535
0.019331059
0.019331668
0.019324066
0.019308093
0.019283922
0.019251767
0.019211882
0.019164546
0.019110047
0.019048701
0.018980828
0.018906729
0.018826723
0.018741104
0.018650446
0.018555434
0.018456662
0.018354667
0.018249978
0.018143081
0.018034429
0.017924434
0.017813537
0.01770233
0.017591193
0.017480555
0.017371378
0.017263109
0.017155261
0.017047397
0.016939238
0.016829297
0.016717892
0.01660476
0.016489837
0.016372997
0.016254151
0.016133194
0.016009998
0.015884883
0.015758438
0.015631287
0.015504063
0.015377433
0.015252119
0.015128915
0.015008733
0.014892752
0.014782339
0.014679305
0.014585876
0.014505107
0.014440467
0.014392819
0.01436129
0.014344106
0.018574895
0.01859006
0.018606436
0.018624085
0.018643631
0.018663967
0.01867839
0.018684915
0.018683359
0.018673886
0.018656603
0.018631673
0.018599299
0.01855973
0.018513233
0.018460084
0.018400586
0.018335042
0.018263739
0.018186981
0.018105069
0.018018563
0.017928121
0.017834311
0.017737642
0.01763864
0.017537886
0.017435804
0.017332743
0.017229184
0.017125952
0.017023001
0.016920467
0.016818083
0.016715763
0.016612943
0.016508864
0.016403739
0.016297276
0.016189421
0.016080044
0.015969049
0.015856334
0.015741809
0.015625374
0.015506904
0.0153867
0.015265323
0.015143361
0.015021412
0.01490011
0.014780136
0.014662243
0.014547298
0.01443642
0.014330906
0.014232484
0.014143266
0.014066163
0.014004487
0.013959057
0.013929036
0.013912723
0.01799019
0.018002707
0.018016288
0.018030991
0.018047401
0.018064453
0.018075904
0.018079873
0.018076322
0.018065342
0.018047055
0.018021627
0.017989257
0.017950184
0.017904667
0.017852971
0.017795392
0.017732221
0.017663737
0.017590253
0.01751211
0.017429839
0.017344054
0.017255283
0.017163994
0.017070741
0.016976302
0.016880794
0.016784436
0.016687437
0.016589857
0.016492013
0.016394101
0.01629528
0.016195841
0.016095722
0.015994685
0.015892654
0.015789483
0.015685073
0.015579313
0.015472103
0.01536335
0.015252965
0.015140851
0.01502689
0.014911365
0.014794809
0.014677779
0.014560843
0.014444602
0.014329701
0.014216857
0.014106892
0.014000869
0.013900024
0.013806002
0.013720813
0.013647227
0.013588414
0.013545152
0.013516633
0.013501225
0.017438657
0.017449359
0.017460893
0.017473342
0.017487275
0.017501658
0.017510664
0.017512548
0.017507454
0.017495387
0.017476455
0.017450821
0.017418686
0.01738029
0.01733589
0.01728575
0.01723016
0.017169409
0.017103771
0.017033602
0.016959317
0.016881307
0.016800097
0.016716158
0.016629922
0.016541784
0.016451943
0.016360739
0.016268482
0.016175285
0.016080814
0.01598562
0.015890042
0.01579397
0.01569736
0.015600116
0.015502101
0.015403207
0.015303317
0.015202328
0.015100136
0.014996645
0.014891766
0.014785414
0.014677497
0.014567899
0.014456892
0.014344979
0.014232693
0.014120575
0.014009191
0.013899158
0.013791156
0.013685965
0.0135846
0.013488236
0.01339844
0.013317125
0.013246931
0.013190895
0.013149752
0.013122726
0.013108249
0.016942788
0.016955659
0.016968859
0.016976888
0.016977837
0.016972011
0.016959441
0.016940307
0.016914812
0.016883183
0.016845671
0.01680254
0.016754053
0.016700493
0.016642143
0.016579265
0.016512108
0.016440848
0.016365927
0.016287872
0.016207141
0.016124152
0.016039186
0.015952117
0.015863441
0.015773524
0.015682599
0.015590754
0.015498249
0.015405347
0.015312081
0.015218372
0.015124113
0.015029188
0.01493349
0.014836913
0.014739358
0.014640725
0.014540926
0.014439875
0.014337491
0.014233687
0.014128352
0.014021743
0.013914342
0.013806656
0.0136992
0.013592512
0.013487181
0.013383852
0.013283264
0.013186385
0.013094333
0.013008605
0.012931025
0.012864111
0.012810774
0.012771712
0.012746175
0.012732653
0.012729235
0.012733366
0.016430563
0.016443221
0.016456174
0.01646407
0.0164651
0.016459372
0.016447059
0.016428375
0.016403543
0.016372798
0.016336397
0.016294599
0.016247663
0.01619586
0.01613946
0.016078712
0.01601378
0.015944701
0.015871959
0.015796085
0.015717525
0.015636672
0.015553857
0.015469251
0.015383141
0.015295806
0.015207484
0.015118361
0.015028657
0.014938605
0.014848263
0.014757552
0.014666368
0.014574605
0.01448216
0.014388934
0.014294833
0.014199765
0.014103645
0.014006393
0.013907931
0.013808179
0.013707028
0.013604722
0.013501726
0.013398523
0.013295599
0.013193466
0.013092684
0.012993868
0.012897722
0.012805173
0.012717288
0.0126355
0.012561546
0.012497824
0.012447127
0.012410112
0.012386055
0.012373504
0.01237064
0.012374945
0.015933707
0.015946092
0.015958757
0.015966488
0.01596764
0.01596231
0.015950599
0.015932689
0.015908787
0.015879117
0.015843927
0.015803467
0.015757984
0.015707742
0.015652994
0.015593974
0.01553089
0.015463887
0.015393357
0.015319784
0.015243582
0.015165124
0.015084749
0.015002708
0.014919258
0.014834648
0.014749103
0.014662829
0.014576035
0.014488944
0.01440162
0.014313987
0.014225948
0.014137402
0.014048252
0.013958406
0.013867775
0.013776274
0.013683822
0.01359034
0.013495761
0.013400006
0.013302968
0.013204879
0.013106186
0.013007345
0.012908822
0.012811109
0.01271474
0.012620304
0.012528476
0.012440142
0.012356314
0.012278363
0.012207942
0.012147334
0.012099217
0.012064208
0.012041612
0.012030029
0.012027739
0.012032245
0.015452601
0.015464627
0.015476936
0.015484453
0.015485624
0.015480548
0.015469315
0.015452083
0.015429043
0.015400408
0.015366411
0.015327294
0.015283294
0.015234664
0.015181648
0.015124471
0.015063349
0.014998463
0.014930186
0.014858977
0.014785229
0.014709296
0.014631512
0.014552146
0.014471448
0.014389655
0.014306986
0.014223646
0.014139839
0.014055781
0.013971536
0.013887034
0.013802183
0.013716888
0.013631057
0.013544603
0.013457446
0.013369503
0.013280696
0.01319095
0.013100202
0.013008376
0.012915366
0.012821402
0.012726907
0.012632324
0.012538098
0.012444704
0.012352647
0.012262492
0.01217488
0.012090656
0.012010783
0.011936567
0.011869583
0.011812005
0.0117664
0.011733353
0.011712191
0.011701569
0.01169986
0.011704583
0.014987513
0.014999097
0.01501098
0.015018227
0.015019339
0.015014431
0.015003586
0.014986952
0.014964708
0.014937053
0.014904212
0.014866416
0.014823892
0.014776884
0.014725629
0.014670342
0.014611241
0.014548512
0.014482522
0.014413714
0.014342467
0.014269119
0.014193999
0.014117371
0.014039481
0.01396056
0.01388082
0.013800462
0.013719684
0.013638695
0.013557561
0.013476215
0.01339457
0.013312536
0.013230025
0.013146956
0.013063251
0.012978831
0.012893621
0.012807558
0.012720577
0.012632611
0.012543561
0.012453648
0.012363276
0.012272872
0.012182861
0.012093696
0.012005856
0.011919878
0.011836374
0.01175615
0.011680124
0.011609542
0.011545903
0.011491276
0.011448121
0.011416988
0.011397231
0.011387557
0.011386429
0.01139137
0.01453858
0.014549655
0.014561047
0.014567976
0.014568959
0.014564159
0.014553638
0.014537538
0.014516031
0.014489305
0.014457577
0.014421068
0.014379997
0.014334597
0.014285099
0.014231711
0.014174646
0.014114091
0.014050402
0.013984009
0.013915278
0.013844538
0.013772107
0.013698243
0.013623184
0.013547155
0.013470363
0.013393004
0.013315267
0.013237355
0.013159333
0.013081137
0.013002684
0.012923888
0.012844668
0.012764949
0.012684655
0.012603716
0.012522064
0.012439637
0.012356375
0.012272217
0.012187068
0.012101139
0.012014818
0.011928509
0.01184262
0.011757581
0.011673854
0.011591949
0.011512448
0.011436121
0.011363841
0.011296798
0.011236418
0.011184665
0.011143898
0.011114633
0.011096247
0.011087507
0.011086949
0.011092106
0.014105811
0.014116329
0.014127181
0.014133752
0.014134548
0.014129808
0.014119563
0.014103949
0.014083129
0.014057287
0.014026629
0.013991369
0.013951717
0.0139079
0.013860138
0.013808634
0.013753598
0.013695208
0.013633812
0.013569828
0.013503608
0.013435472
0.013365728
0.013294624
0.01322239
0.013149246
0.01307539
0.013001012
0.012926292
0.012851431
0.012776493
0.012701416
0.012626122
0.012550534
0.012474576
0.012398174
0.01232126
0.012243766
0.012165631
0.012086794
0.012007199
0.011926787
0.011845466
0.011763439
0.01168108
0.011598774
0.011516912
0.011435904
0.01135619
0.011278257
0.01120266
0.011130133
0.011061505
0.010997911
0.010940706
0.010891756
0.010853315
0.010825871
0.010808823
0.010801004
0.010800989
0.010806354
0.010817812
0.010829613
0.010857597
0.013689109
0.013699036
0.013709314
0.013715496
0.013716061
0.013711348
0.013701342
0.013686173
0.013666001
0.013641002
0.013611375
0.013577326
0.013539058
0.013496789
0.013450733
0.013401088
0.013348055
0.013291808
0.013232683
0.013171083
0.013107349
0.013041791
0.012974702
0.012906324
0.012836881
0.012766585
0.012695629
0.012624195
0.01255246
0.01248062
0.012408734
0.012336747
0.012264583
0.012192172
0.012119441
0.01204632
0.011972742
0.011898644
0.011823967
0.011748656
0.011672657
0.011595917
0.011518346
0.011440139
0.011361654
0.011283263
0.011205335
0.011128263
0.011052467
0.010978413
0.010906625
0.010837805
0.010772739
0.01071251
0.010658403
0.010612184
0.010576013
0.010550342
0.010534597
0.010527695
0.010528163
0.010533744
0.010545356
0.010557172
0.010585997
0.013288289
0.013297606
0.013307289
0.013313048
0.013313368
0.013308659
0.013298862
0.013284108
0.01326455
0.013240359
0.013211727
0.013178853
0.013141932
0.013101176
0.01305679
0.013008965
0.012957896
0.012903751
0.012846854
0.012787595
0.012726304
0.012663276
0.0125988
0.012533109
0.01246642
0.012398936
0.012330844
0.01226232
0.012193537
0.012124682
0.012055813
0.011986877
0.011917802
0.01184852
0.011778962
0.011709063
0.011638762
0.011567998
0.011496715
0.011424861
0.011352386
0.011279242
0.011205342
0.011130873
0.011056178
0.010981613
0.010907531
0.010834306
0.010762338
0.010692071
0.010624004
0.010558804
0.010497217
0.010440272
0.010389188
0.010345636
0.010311678
0.010287734
0.010273261
0.010267159
0.010268234
0.010273967
0.010285717
0.010297468
0.010326503
0.012903096
0.012911798
0.012920877
0.012926149
0.012926293
0.01292155
0.012911934
0.012897565
0.012878591
0.012855176
0.012827504
0.012795767
0.012760154
0.012720868
0.012678109
0.01263206
0.012582911
0.012530824
0.012476113
0.012419153
0.012360263
0.012299726
0.012237824
0.012174781
0.012110805
0.012046092
0.011980823
0.011915166
0.011849286
0.011783365
0.011717459
0.011651518
0.011585476
0.011519265
0.011452821
0.011386085
0.011318997
0.011251501
0.011183544
0.011115077
0.011046054
0.010976431
0.010906123
0.010835312
0.010764325
0.010693502
0.010623181
0.010553717
0.010485492
0.010418928
0.010354498
0.010292836
0.010234649
0.010180914
0.010132784
0.010091837
0.010060038
0.010037776
0.010024541
0.01001923
0.010020849
0.010026733
0.010038617
0.010050229
0.010079056
0.012549797
0.012554578
0.01255454
0.012549753
0.012540299
0.012526295
0.012507879
0.012485211
0.012458468
0.012427834
0.012393493
0.012355641
0.01231447
0.012270157
0.01222289
0.012172822
0.012120255
0.012065554
0.012009021
0.011950934
0.011891559
0.011831113
0.011769799
0.011707803
0.011645301
0.011582455
0.011519423
0.011456379
0.01139338
0.011330376
0.011267306
0.011204106
0.011140717
0.01107708
0.011013141
0.010948847
0.010884148
0.010818999
0.010753356
0.01068718
0.01062039
0.010553159
0.010485801
0.01041864
0.010351999
0.010286216
0.010221654
0.010158714
0.010097843
0.010039644
0.0099847845
0.0099341894
0.0098889498
0.0098505493
0.0098208594
0.0098002361
0.0097882033
0.0097836609
0.0097857906
0.0097918024
0.0098038143
0.0098152376
0.0098436675
0.012193737
0.012198055
0.012197788
0.012192962
0.012183666
0.012170012
0.012152138
0.012130196
0.012104357
0.0120748
0.012041701
0.01200525
0.011965633
0.011923022
0.011877595
0.011829502
0.011779035
0.011726543
0.011672319
0.011616628
0.011559728
0.011501828
0.01144312
0.011383787
0.011323996
0.011263905
0.011203663
0.011143439
0.011083286
0.011023161
0.010963004
0.010902755
0.010842358
0.010781758
0.010720905
0.010659748
0.010598242
0.010536343
0.010474012
0.010411213
0.010347868
0.010284144
0.010220341
0.010156768
0.010093732
0.010031555
0.0099705821
0.0099111923
0.0098538092
0.0097990037
0.0097474038
0.0096998849
0.0096574758
0.0096215679
0.0095939401
0.0095749134
0.0095640491
0.0095602484
0.0095628627
0.0095689739
0.0095811029
0.0095923066
0.0096202438
0.0094197294
0.009433245
0.011852358
0.011856233
0.011855729
0.011850864
0.011841721
0.011828411
0.011811065
0.011789832
0.011764877
0.011736372
0.011704487
0.011669406
0.011631308
0.01159036
0.011546734
0.011500574
0.011452162
0.011401832
0.011349867
0.011296523
0.011242046
0.011186638
0.011130484
0.011073759
0.011016624
0.01095923
0.010901721
0.01084426
0.010786899
0.010729595
0.010672292
0.010614936
0.010557472
0.010499849
0.01044202
0.010383939
0.010325562
0.01026685
0.010207765
0.010148276
0.01008831
0.010028025
0.0099677079
0.0099076535
0.0098481539
0.0097895147
0.0097320621
0.009676156
0.009622195
0.0095707191
0.0095223178
0.0094778166
0.0094381832
0.0094047181
0.0093791083
0.0093616383
0.0093519103
0.0093488206
0.0093518976
0.0093580779
0.0093703088
0.0093812707
0.0094086599
0.0092197989
0.0092331743
0.011525311
0.01152876
0.011528025
0.011523122
0.011514132
0.01150116
0.011484334
0.011463796
0.011439707
0.011412232
0.011381536
0.011347797
0.011311187
0.011271866
0.011230003
0.011185736
0.011139336
0.011091124
0.011041372
0.010990326
0.010938223
0.010885256
0.010831604
0.010777434
0.010722902
0.010668153
0.010613324
0.010558571
0.010503947
0.010449409
0.010394906
0.010340387
0.0102858
0.010231098
0.010176237
0.010121173
0.010065867
0.010010282
0.0099543833
0.0098981439
0.0098414937
0.0097845845
0.0097276908
0.0096710919
0.0096150658
0.0095599018
0.0095059084
0.0094534254
0.0094028273
0.0093546231
0.0093093648
0.0092678279
0.0092309203
0.009199852
0.0091762193
0.0091602679
0.0091516454
0.0091492345
0.0091527538
0.0091589718
0.009171286
0.0091819886
0.0092087915
0.0090314305
0.0090446321
0.011212246
0.011215289
0.011214335
0.0112094
0.011200564
0.011187928
0.011171615
0.011151762
0.011128524
0.011102062
0.011072533
0.011040109
0.011004958
0.010967234
0.0109271
0.010884689
0.01084026
0.010794125
0.010746543
0.010697749
0.010647974
0.010597401
0.010546202
0.010494539
0.010442561
0.010390406
0.010338207
0.010286113
0.010234174
0.010182353
0.010130599
0.010078865
0.010027103
0.0099752703
0.0099233244
0.0098712253
0.0098189365
0.0097664245
0.0097136574
0.0096606119
0.0096072217
0.009553632
0.0095001046
0.0094469047
0.0093942955
0.0093425508
0.0092919612
0.0092428468
0.0091955583
0.0091505739
0.0091084085
0.0090697874
0.0090355602
0.0090068462
0.0089851526
0.0089706833
0.008963137
0.0089613719
0.0089653135
0.0089715373
0.0089839132
0.0089943407
0.0090205263
0.0088545331
0.0088675302
0.010912826
0.010915482
0.010914322
0.010909366
0.010900688
0.010888389
0.010872585
0.010853409
0.010831011
0.010805546
0.010777166
0.010746036
0.010712318
0.010676162
0.010637726
0.010597137
0.010554645
0.010510548
0.010465096
0.010418515
0.010371025
0.010322803
0.010274015
0.010224814
0.010175344
0.010125738
0.010076123
0.010026642
0.0099773441
0.0099281926
0.0098791423
0.0098301478
0.0097811654
0.0097321542
0.0096830763
0.0096338943
0.0095845748
0.0095350873
0.0094854027
0.0094355017
0.0093853214
0.009335001
0.0092847893
0.0092349379
0.0091856955
0.0091373202
0.0090900852
0.0090442911
0.0090002646
0.0089584534
0.0089193356
0.0088835864
0.0088519978
0.008825599
0.0088058092
0.0087927868
0.0087862888
0.008785136
0.0087894797
0.0087956771
0.0088080909
0.0088182273
0.0088437676
0.0086890284
0.0087017933
0.010627666
0.010622699
0.010614188
0.010602227
0.010586931
0.010568428
0.010546862
0.010522381
0.010495134
0.01046528
0.010432975
0.010398363
0.010361597
0.010322801
0.010282214
0.010240122
0.010196766
0.010152361
0.010107119
0.01006121
0.010014792
0.0099680137
0.0099210124
0.0098739162
0.0098268452
0.009779937
0.0097332386
0.009686717
0.0096403294
0.0095940339
0.0095477898
0.0095015595
0.0094553081
0.0094090014
0.0093626091
0.0093161036
0.0092694586
0.0092226585
0.0091756443
0.009128549
0.0090816088
0.0090350614
0.0089891416
0.008944092
0.0089001681
0.0088576511
0.0088168443
0.0087781644
0.0087420535
0.0087091362
0.0086801479
0.0086560278
0.0086381085
0.0086264988
0.0086210225
0.0086204483
0.0086251733
0.0086313115
0.008643737
0.0086535663
0.008678433
0.0085348495
0.0085473562
0.010354061
0.010349097
0.010340761
0.010329145
0.01031436
0.010296527
0.010275787
0.010252283
0.010226157
0.010197563
0.010166653
0.010133564
0.010098446
0.010061418
0.010022708
0.0099825934
0.0099413021
0.0098990416
0.0098560157
0.0098123862
0.0097683056
0.0097239163
0.0096793493
0.0096347277
0.009590166
0.0095457958
0.009501663
0.0094577365
0.0094139769
0.0093703454
0.0093268045
0.0092833198
0.0092398594
0.0091963922
0.0091528907
0.0091093307
0.0090656882
0.0090219514
0.0089780653
0.0089341568
0.0088904495
0.0088471677
0.0088045319
0.0087627693
0.0087221182
0.0086828401
0.0086452149
0.0086096286
0.0085764874
0.008546365
0.0085199414
0.0084980653
0.0084819845
0.0084717542
0.0084672735
0.0084672443
0.0084723281
0.0084783743
0.0084907836
0.0085002899
0.0085244529
0.0083919374
0.0084041612
0.010093224
0.010088279
0.01008013
0.010068867
0.010054596
0.010037434
0.010017517
0.0099949836
0.0099699703
0.0099426258
0.0099130963
0.0098815148
0.0098480271
0.0098127456
0.0097758916
0.0097377296
0.0096984784
0.0096583366
0.0096174995
0.0095761223
0.0095343509
0.0094923218
0.0094501604
0.0094079846
0.0093659031
0.0093240422
0.0092824459
0.0092410857
0.0091999251
0.0091589284
0.0091180615
0.0090772927
0.0090365934
0.0089959354
0.0089552943
0.0089146487
0.0088739773
0.0088332719
0.0087924816
0.0087517269
0.0087112193
0.0086711696
0.0086317841
0.0085932745
0.008555862
0.0085197885
0.0084853107
0.0084527831
0.0084225772
0.0083952148
0.0083713219
0.0083516563
0.0083373826
0.0083284988
0.0083249889
0.0083254636
0.0083308871
0.0083368094
0.0083491727
0.00835834
0.0083817683
0.0082602375
0.0082721545
0.0098399899
0.009832042
0.009821141
0.0098073898
0.0097909025
0.0097718089
0.0097502432
0.0097263373
0.0097002345
0.0096720758
0.0096419895
0.0096101173
0.0095765671
0.0095415512
0.0095053231
0.0094680921
0.0094300482
0.0093913785
0.0093522314
0.0093127468
0.0092730551
0.0092332762
0.009193523
0.0091538987
0.0091145237
0.0090754408
0.0090366235
0.0089980385
0.0089596532
0.0089214364
0.0088833595
0.0088453968
0.0088075233
0.0087697172
0.0087319603
0.0086942338
0.0086565328
0.0086188106
0.0085811817
0.0085438451
0.0085069982
0.0084708332
0.0084355464
0.0084013418
0.0083684413
0.0083370788
0.0083075773
0.0082802736
0.0082556375
0.0082342417
0.0082167531