-5.5511151e-17 	0 	0 	0
0.00086769924 	-0.0056864599 	1.0805514e-05 	4.3747539e-05
0.0017874829 	-0.011719001 	4.0770739e-05 	8.7584516e-05
0.0027624773 	-0.01821037 	9.4358958e-05 	0.00013196009
0.0037959966 	-0.025195864 	0.00017440431 	0.00017668202
0.0048915537 	-0.032710916 	0.00028386555 	0.00022154011
0.0060528726 	-0.040789138 	0.00042598718 	0.00026630455
0.0072839007 	-0.049458666 	0.00060413825 	0.00031072048
0.0085888223 	-0.058735687 	0.00082165567 	0.00035449645
0.0099720728 	-0.068613802 	0.0010816565 	0.00039728587
0.011438354 	-0.079048454 	0.0013867293 	0.00043866401
0.01299265 	-0.089938011 	0.0017384526 	0.00047811074
0.014640244 	-0.10110794 	0.0021367635 	0.00051501846
0.016386737 	-0.11230955 	0.002579352 	0.00054874668
0.018238064 	-0.12324403 	0.0030614163 	0.00057872562
0.020200518 	-0.13361016 	0.003576075 	0.0006045755
0.022280771 	-0.14315791 	0.004115407 	0.00062618519
0.024485892 	-0.1517249 	0.0046717117 	0.00064371392
0.026823378 	-0.15924441 	0.00523851 	0.00065752558
0.029301173 	-0.16572989 	0.0058110467 	0.00066809523
0.0319277 	-0.17124891 	0.0063863256 	0.0006759247
0.034711887 	-0.17589747 	0.0069628502 	0.00068148508
0.037663197 	-0.17978035 	0.0075402491 	0.00068518681
0.040791661 	-0.18299865 	0.0081189076 	0.00068737029
0.044107915 	-0.18564323 	0.0086996644 	0.00068830886
0.047623229 	-0.18779219 	0.0092835905 	0.00068821741
0.051349553 	-0.18951084 	0.0098718381 	0.0006872627
0.055299553 	-0.19085268 	0.010465543 	0.00068557311
0.059486654 	-0.19186102 	0.011065761 	0.00068324703
0.06392509 	-0.19257048 	0.011673437 	0.00068035966
0.068629948 	-0.19300845 	0.012289377 	0.00067696837
0.073617218 	-0.19319633 	0.012914239 	0.00067311683
0.078903853 	-0.1931505 	0.013548524 	0.00066883823
0.084507823 	-0.19288316 	0.014192565 	0.0006641577
0.090448176 	-0.19240292 	0.014846519 	0.00065909426
0.096745104 	-0.19171534 	0.01551036 	0.00065366232
0.10342001 	-0.19082328 	0.016183863 	0.00064787293
0.11049558 	-0.18972717 	0.016866589 	0.00064173478
0.11799587 	-0.18842519 	0.017557868 	0.00063525511
0.12594638 	-0.18691345 	0.018256775 	0.00062844048
0.13437411 	-0.18518601 	0.018962099 	0.00062129758
0.14330773 	-0.1832349 	0.019672315 	0.00061383397
0.1527776 	-0.18105016 	0.020385538 	0.00060605884
0.1628159 	-0.17861968 	0.021099478 	0.00059798383
0.17345677 	-0.17592915 	0.021811378 	0.00058962395
0.18473635 	-0.1729619 	0.022517946 	0.00058099851
0.19669301 	-0.16969869 	0.023215267 	0.00057213214
0.20936737 	-0.16611743 	0.023898697 	0.00056305595
0.22280253 	-0.16219294 	0.024562738 	0.00055380862
0.23704414 	-0.15789648 	0.025200879 	0.00054443762
0.25214061 	-0.1531953 	0.025805403 	0.00053500024
0.26814327 	-0.14805205 	0.026367152 	0.00052556433
0.28510649 	-0.14242399 	0.026875229 	0.00051620862
0.30308795 	-0.13626198 	0.027316637 	0.00050702192
0.32214876 	-0.1295092 	0.02767582 	0.00049810083
0.34235371 	-0.12209929 	0.027934106 	0.00048954464
0.36377149 	-0.11395388 	0.028068997 	0.00048144591
0.38647488 	-0.10497892 	0.028053309 	0.00047387425
0.41054106 	-0.095059313 	0.027854122 	0.00046684905
0.43605183 	-0.08405075 	0.027431549 	0.00046029497
0.46309391 	-0.071767058 	0.026737425 	0.00045396956
0.49175922 	-0.057960149 	0.025714008 	0.00044734486
0.52214518 	-0.042288002 	0.024293507 	0.00043941301
0.55435509 	-0.024263865 	0.022397092 	0.00042836825
0.58849842 	-0.003182475 	0.019975734 	0.00041111282
0.62469124 	0.022363675 	0.016944435 	0.00038219961
0.66305656 	0.055522549 	0.013160278 	0.00032837727
0.70372479 	0.10089802 	0.0085092493 	0.00021936264
0.74683417 	0.16140456 	0.0031972271 	7.0019792e-06
0.79253123 	0.23486671 	-0.0021652209 	-0.00035002547
0.84097128 	0.31516685 	-0.0070420231 	-0.00084825265
0.87300985 	0.36636023 	-0.0096099362 	-0.001217776
0.89232374 	0.39724096 	-0.011159645 	-0.0014411465
0.94676658 	0.47929721 	-0.014334729 	-0.0020700805
1.0044767 	0.56006971 	-0.016517556 	-0.0026646516
1.0656501 	0.63647939 	-0.017918284 	-0.0031397193
1.1304946 	0.70535028 	-0.018918014 	-0.0034320815
1.1992304 	0.76560193 	-0.019738988 	-0.0035292021
1.272091 	0.81789421 	-0.020397263 	-0.0034558394
1.3493238 	0.86357572 	-0.020867235 	-0.0032518285
1.4311911 	0.90406459 	-0.02111273 	-0.0029589704
1.5179708 	0.94043172 	-0.021106768 	-0.0026161166
1.6047489 	0.97222446 	-0.020888975 	-0.0022693217
1.6866115 	0.99937302 	-0.020527602 	-0.0019515601
1.7437714 	1.0167779 	-0.020171891 	-0.0017425271
1.7638597 	1.022895 	-0.020047693 	-0.0016690529
1.8367876 	1.0434515 	-0.01947412 	-0.0014214738
1.9055763 	1.0614405 	-0.01883857 	-0.0012059732
1.970461 	1.0771709 	-0.018166873 	-0.0010179323
2.0316639 	1.0908965 	-0.01747995 	-0.00085200932
2.0893942 	1.1028365 	-0.016793397 	-0.00070322412
2.1438493 	1.1131831 	-0.016118112 	-0.00056745765
2.1952152 	1.1221065 	-0.015461024 	-0.00044145675
2.2436677 	1.1297573 	-0.014826129 	-0.00032277234
2.289372 	1.136267 	-0.01421538 	-0.00020962837
2.3324844 	1.1417485 	-0.013629392 	-0.00010078037
2.373152 	1.1462968 	-0.013067952 	4.6116582e-06
2.4115136 	1.1499898 	-0.01253036 	0.00010709531
2.4477001 	1.1528901 	-0.01201565 	0.00020701777
2.481835 	1.1550458 	-0.011522731 	0.00030459128
2.5140348 	1.1564928 	-0.011050477 	0.00039993669
2.5444093 	1.1572562 	-0.01059777 	0.00049311052
2.573062 	1.1573523 	-0.010163536 	0.00058412534
2.5828758 	1.1571485 	-0.010012087 	0.00061637807
2.6000985 	1.1567901 	-0.0097463677 	0.00067298537
2.6256058 	1.1555749 	-0.0093455704 	0.00075961504
2.6496662 	1.1537112 	-0.0089605708 	0.00084390193
2.6723619 	1.1512035 	-0.0085906675 	0.00092571844
2.6937705 	1.1480596 	-0.0082352636 	0.0010049096
2.7139649 	1.1442919 	-0.0078938595 	0.0010812987
2.7330143 	1.1399185 	-0.0075660658 	0.0011546932
2.7509836 	1.134964 	-0.0072515732 	0.0012248908
2.7679341 	1.1294586 	-0.0069501142 	0.0012916995
2.7839236 	1.1234368 	-0.0066614036 	0.0013549532
2.7990067 	1.1169355 	-0.0063850977 	0.0014145165
2.8132348 	1.1099914 	-0.0061208045 	0.0014702886
2.8266564 	1.1026399 	-0.0058680535 	0.0015222054
2.8393173 	1.0949129 	-0.0056262832 	0.0015702375
2.8512607 	1.0868378 	-0.0053948388 	0.0016143865
2.8625272 	1.0784366 	-0.0051729806 	0.0016546796
2.8731552 	1.0697254 	-0.004959899 	0.0016911636
2.8831809 	1.0607139 	-0.0047547378 	0.0017238991
2.8926385 	1.0514054 	-0.0045566189 	0.0017529541
2.9015602 	1.0417973 	-0.0043646705 	0.0017783997
2.9099764 	1.0318812 	-0.0041780532 	0.0018003051
2.9179157 	1.0216436 	-0.0039959862 	0.0018187343
2.9254052 	1.0110662 	-0.0038177693 	0.0018337438
2.9324704 	1.0001268 	-0.0036427994 	0.0018453812
2.9391353 	0.98879987 	-0.0034705837 	0.001853684
2.9454227 	0.97705699 	-0.0033007472 	0.0018586802
2.9513538 	0.9648677 	-0.0031330374 	0.0018603886
2.956949 	0.95220092 	-0.0029673439 	0.0018588201
2.9622271 	0.9390245 	-0.0028038064 	0.0018539794
2.9672063 	0.92529285 	-0.0026422468 	0.001845857
2.9719035 	0.91092871 	-0.0024820825 	0.0018344046
2.9763345 	0.89583851 	-0.0023227325 	0.0018195344
2.9805146 	0.87994889 	-0.0021641354 	0.0018011607
2.9844579 	0.86321131 	-0.0020069689 	0.0017792224
2.9881778 	0.84558745 	-0.0018520946 	0.0017536795
2.9916871 	0.82704064 	-0.0017004211 	0.0017245044
2.9949975 	0.80753024 	-0.0015528353 	0.0016916732
2.9981205 	0.78700764 	-0.0014101576 	0.0016551566
3.0010666 	0.76541289 	-0.0012731131 	0.0016149115
3.0038458 	0.74267184 	-0.0011423162 	0.0015708726
3.0064677 	0.71869383 	-0.0010182653 	0.001522946
3.008941 	0.69336976 	-0.00090134447 	0.0014710045
3.0112742 	0.66657067 	-0.00079183131 	0.001414884
3.0134753 	0.63814728 	-0.00068990147 	0.0013543835
3.0155518 	0.60793512 	-0.00059564094 	0.0012892782
3.0175106 	0.57576553 	-0.00050906196 	0.0012193463
3.0193585 	0.54147813 	-0.00043011077 	0.0011444
3.0211017 	0.50492859 	-0.00035872809 	0.0010643051
3.0227463 	0.46589941 	-0.00029465681 	0.00097878693
3.0242977 	0.42414353 	-0.00023746484 	0.00088752698
3.0257612 	0.37976136 	-0.00018692309 	0.00079098252
3.0271418 	0.33341383 	-0.00014297858 	0.00069082503
3.0284443 	0.28621285 	-0.00010558295 	0.00058965324
3.029673 	0.23943286 	-7.459932e-05 	0.00049032446
3.0308321 	0.19412023 	-4.972789e-05 	0.00039510176
3.0319256 	0.15088342 	-3.0523161e-05 	0.00030522992
3.0329571 	0.1099437 	-1.64733e-05 	0.00022108325
3.0339302 	0.07129797 	-7.076642e-06 	0.0001425417
3.0348483 	0.034851566 	-1.8336132e-06 	6.9288595e-05
3.0357143 	0 	0 	0
