y,U_0,U_1,U_2
0,0,0,0
0.00086769924,3.1081792e-12,1.8544717e-16,3.874108e-29
0.0017874829,6.3524808e-12,7.0692805e-16,-2.9201601e-30
0.0027624773,9.7834139e-12,1.6719302e-15,-3.3654535e-29
0.0037959966,1.3407835e-11,3.1486253e-15,3.1851706e-29
0.0048915537,1.7232775e-11,5.2173567e-15,2.7520708e-29
0.0060528726,2.1265433e-11,7.9726051e-15,-4.0408669e-29
0.0072839007,2.5513179e-11,1.1522009e-14,-2.8575345e-29
0.0085888223,2.9983553e-11,1.5986661e-14,2.5907417e-29
0.0099720729,3.4684264e-11,2.1502668e-14,-6.8971313e-36
0.011438354,3.9623194e-11,2.8222967e-14,-1.227863e-35
0.01299265,4.4808394e-11,3.631924e-14,-7.972992e-36
0.014640245,5.0248087e-11,4.5983994e-14,-4.8013851e-36
0.016386737,5.5950666e-11,5.7432861e-14,-3.2406981e-29
0.018238064,6.1924695e-11,7.0907135e-14,-2.5757128e-30
0.020200518,6.8178905e-11,8.6676574e-14,5.4759355e-29
0.022280771,7.4722197e-11,1.0504248e-13,3.7920207e-30
0.024485892,8.1563635e-11,1.2634113e-13,-2.1442053e-29
0.026823378,8.8712451e-11,1.5094746e-13,2.1740947e-35
0.029301173,9.6178037e-11,1.7927926e-13,3.0818807e-29
0.0319277,1.0396994e-10,2.1180164e-13,-4.0701796e-29
0.034711887,1.1209787e-10,2.4903207e-13,-3.0448489e-29
0.037663197,1.2057169e-10,2.9154579e-13,4.1343988e-29
0.040791661,1.294014e-10,3.3998185e-13,-3.1038971e-35
0.044107915,1.3859716e-10,3.9504968e-13,2.3690578e-34
0.047623229,1.4816925e-10,4.5753632e-13,-2.0930109e-28
0.051349553,1.5812809e-10,5.2831427e-13,1.3186222e-28
0.055299553,1.6848422e-10,6.0835016e-13,3.1297789e-28
0.059486654,1.7924831e-10,6.9871412e-13,-1.9152635e-28
0.06392509,1.9043113e-10,8.0059011e-13,-1.0046178e-28
0.068629948,2.0204354e-10,9.1528705e-13,1.1886422e-28
0.073617218,2.1409651e-10,1.044251e-12,-3.0872133e-30
0.078903853,2.2660107e-10,1.1890784e-12,7.2383511e-29
0.084507823,2.3956831e-10,1.35153e-12,-7.1461357e-30
0.090448176,2.5300937e-10,1.5335469e-12,-1.3986823e-28
0.096745104,2.6693544e-10,1.7372664e-12,4.3364392e-34
0.10342001,2.8135772e-10,1.9650401e-12,7.804665e-34
0.11049558,2.9628738e-10,2.219453e-12,-4.3373764e-35
0.11799587,3.1173559e-10,2.503343e-12,9.4533794e-29
0.12594638,3.2771344e-10,2.8198227e-12,-6.4631958e-29
0.13437411,3.4423197e-10,3.1723012e-12,-9.7394964e-29
0.14330773,3.6130209e-10,3.5645074e-12,-3.8341605e-29
0.1527776,3.7893455e-10,4.0005134e-12,-2.9154471e-28
0.1628159,3.9713992e-10,4.4847584e-12,1.2246756e-28
0.17345677,4.1592853e-10,5.0220723e-12,3.1566784e-28
0.18473635,4.3531044e-10,5.6176987e-12,5.9929682e-29
0.19669301,4.5529533e-10,6.2773156e-12,-2.0269361e-29
0.20936737,4.7589247e-10,7.0070542e-12,-6.3296011e-29
0.22280253,4.9711063e-10,7.8135132e-12,1.6617456e-29
0.23704414,5.1895799e-10,8.7037678e-12,1.7381052e-33
0.25214061,5.4144199e-10,9.6853705e-12,-1.4248589e-33
0.26814327,5.6456926e-10,1.0766343e-11,1.3449894e-32
0.28510649,5.8834541e-10,1.1955151e-11,3.1636776e-28
0.30308795,6.1277488e-10,1.3260671e-11,-1.5701646e-29
0.32214876,6.3786066e-10,1.4692121e-11,-3.2765448e-28
0.34235371,6.636041e-10,1.6258983e-11,1.7549526e-33
0.36377149,6.9000451e-10,1.7970876e-11,4.1346263e-32
0.38647488,7.1705878e-10,1.9837398e-11,1.9242605e-32
0.41054106,7.4476091e-10,2.1867922e-11,-1.4501065e-33
0.43605183,7.731014e-10,2.407133e-11,-8.3440299e-28
0.46309391,8.0206654e-10,2.6455681e-11,3.3471039e-29
0.49175922,8.3163748e-10,2.9027809e-11,8.4989351e-28
0.52214518,8.6178918e-10,3.1792825e-11,7.2843449e-32
0.55435509,8.9248906e-10,3.4753524e-11,6.6408851e-32
0.58849842,9.2369542e-10,3.7909684e-11,6.1090529e-28
0.62469124,9.5535539e-10,4.1257246e-11,9.1065364e-30
0.66305656,9.8740258e-10,4.4787375e-11,-6.3387442e-28
0.70372479,1.0197542e-09,4.8485383e-11,8.1836919e-32
0.74683417,1.0523075e-09,5.232955e-11,-5.4518038e-33
0.79253123,1.0849357e-09,5.6289822e-11,-2.8836901e-32
0.84097128,1.117483e-09,6.0326429e-11,-6.5967498e-32
0.892319,1.1497587e-09,6.438846e-11,-9.0745493e-32
0.9467489,1.1815302e-09,6.8412448e-11,-5.4390578e-32
1.004446,1.2125154e-09,7.2321044e-11,6.2984405e-32
1.0656064,1.2423737e-09,7.6021908e-11,1.3662719e-28
1.1304381,1.270695e-09,7.9406935e-11,-8.6716032e-30
1.1668563,1.2846238e-09,8.0966163e-11,-1.7577392e-28
1.1991613,1.2969876e-09,8.2357924e-11,-3.1857941e-28
1.2720096,1.3206703e-09,8.4736676e-11,-3.3352246e-29
1.3492308,1.3410578e-09,8.6382916e-11,9.8903231e-29
1.4310872,1.357343e-09,8.7131929e-11,2.7257058e-28
1.5178571,1.3684755e-09,8.6828052e-11,-3.705508e-30
1.6046271,1.3734244e-09,8.5436222e-11,-4.3562179e-29
1.6864835,1.3721343e-09,8.3132985e-11,-2.4505999e-29
1.7637046,1.3652559e-09,8.0144695e-11,-1.6825169e-28
1.836553,1.3534937e-09,7.6655492e-11,-8.3722362e-32
1.9052762,1.3375094e-09,7.2821961e-11,-9.4567184e-32
1.9701079,1.3179153e-09,6.8774611e-11,8.5845116e-28
2.0312683,1.2952715e-09,6.462023e-11,-1.0795665e-29
2.0889654,1.2700851e-09,6.0444565e-11,-8.7459968e-28
2.1433953,1.2428111e-09,5.6315092e-11,1.5207177e-28
2.194743,1.2138548e-09,5.2283693e-11,-2.2338281e-29
2.2431831,1.1835745e-09,4.8389126e-11,-1.435034e-28
2.2888801,1.1522851e-09,4.465926e-11,1.1925158e-32
2.3319895,1.1202616e-09,4.1113035e-11,2.7512303e-33
2.3726577,1.087743e-09,3.7762173e-11,-9.8354457e-34
2.411023,1.0549358e-09,3.4612627e-11,8.0520571e-33
2.4472159,1.0220173e-09,3.166582e-11,-4.5976962e-28
2.4813592,9.8913922e-10,2.8919667e-11,-3.7556231e-31
2.5135691,9.5643039e-10,2.6369436e-11,4.4806961e-28
2.5439551,9.2399963e-10,2.4008443e-11,3.5902882e-32
2.5726204,8.9193822e-10,2.182862e-11,6.0616299e-33
2.5826574,8.8020392e-10,2.1083988e-11,-9.5409276e-29
2.5996625,8.6032452e-10,1.982157e-11,-2.5654182e-28
2.6251732,8.2921985e-10,1.7977316e-11,-1.6284654e-28
2.6492394,7.9867394e-10,1.6285684e-11,2.3772136e-28
2.6719428,7.6872798e-10,1.4736833e-11,2.9792129e-29
2.6933606,7.3941462e-10,1.3321035e-11,-1.1341812e-30
2.7135655,7.1075912e-10,1.2028807e-11,1.0922932e-28
2.7326263,6.8278044e-10,1.0851e-11,1.0111276e-28
2.7506078,6.5549214e-10,9.7788651e-12,-4.0264043e-29
2.767571,6.289032e-10,8.8040946e-12,-9.8271873e-29
2.7835737,6.0301869e-10,7.9188489e-12,6.9765015e-30
2.7986701,5.7784038e-10,7.1157656e-12,-1.5393084e-30
2.8129118,5.5336724e-10,6.3879613e-12,5.4433922e-29
2.8263469,5.2959591e-10,5.7290242e-12,3.1497704e-30
2.8390213,5.0652104e-10,5.1330005e-12,-1.8092886e-29
2.8509779,4.8413567e-10,4.5943779e-12,-9.8806163e-30
2.8622575,4.6243146e-10,4.108065e-12,-1.6659215e-31
2.8728984,4.4139895e-10,3.6693699e-12,1.635025e-29
2.8829367,4.2102778e-10,3.2739766e-12,-6.6728636e-31
2.8924066,4.0130682e-10,2.9179225e-12,-2.2186513e-29
2.9013402,3.8222438e-10,2.5975745e-12,3.8492949e-31
2.9097679,3.6376827e-10,2.3096068e-12,1.2339227e-29
2.9177184,3.4592596e-10,2.0509784e-12,-4.5792403e-35
2.9252187,3.2868465e-10,1.8189124e-12,-3.0405897e-35
2.9322943,3.1203134e-10,1.6108755e-12,1.0447096e-34
2.9389692,2.9595289e-10,1.424559e-12,6.7260586e-30
2.9452661,2.8043613e-10,1.2578609e-12,4.4111701e-31
2.9512065,2.6546782e-10,1.1088692e-12,-6.5020337e-30
2.9568104,2.5103476e-10,9.7584584e-13,2.3191223e-29
2.9620971,2.3712378e-10,8.5721246e-13,1.3835945e-30
2.9670843,2.2372182e-10,7.5153665e-13,-1.5556933e-29
2.9717892,2.1081587e-10,6.5751943e-13,3.3241055e-31
2.9762276,1.9839309e-10,5.7398366e-13,-6.0290354e-30
2.9804147,1.8644073e-10,4.9986336e-13,-3.3711696e-35
2.9843647,1.7494623e-10,4.3419386e-13,-5.2983901e-35
2.9880911,1.6389716e-10,3.7610279e-13,2.0478612e-29
2.9916064,1.5328128e-10,3.2480175e-13,1.1272339e-30
2.9949226,1.4308653e-10,2.795787e-13,-1.339162e-29
2.9980511,1.3330101e-10,2.3979105e-13,6.7679156e-31
3.0010024,1.2391305e-10,2.0485924e-13,-5.5882784e-30
3.0037866,1.1491115e-10,1.7426092e-13,-2.8831892e-31
3.0064131,1.0628402e-10,1.4752565e-13,-1.1685794e-32
3.0088909,9.8020552e-11,1.2423005e-13,-5.4604249e-33
3.0112284,9.0109866e-11,1.0399337e-13,-1.5544838e-29
3.0134335,8.2541276e-11,8.647344e-14,-8.6668786e-31
3.0155138,7.5304304e-11,7.1363026e-14,1.4656159e-29
3.0174762,6.8388678e-11,5.8386481e-14,1.0176059e-35
3.0193275,6.1784333e-11,4.7296698e-14,2.5489995e-29
3.021074,5.5481413e-11,3.7872361e-14,1.4720817e-30
3.0227216,4.9470266e-11,2.9915431e-14,-2.753956e-29
3.0242759,4.3741448e-11,2.3248863e-14,-2.0470875e-31
3.0257422,3.828572e-11,1.7714532e-14,-7.2792875e-30
3.0271255,3.3094046e-11,1.3171377e-14,-6.0782336e-31
3.0284304,2.8157595e-11,9.4936989e-15,1.98277e-29
3.0296614,2.3467735e-11,6.5696006e-15,3.5486255e-30
3.0308227,1.9016033e-11,4.2995098e-15,-6.7731454e-30
3.0319183,1.4794253e-11,2.5948964e-15,-2.6769678e-30
3.0329518,1.0794351e-11,1.3780132e-15,-2.2361726e-30
3.0339268,7.0084759e-12,5.826495e-16,-7.4337905e-30
3.0348466,3.4289666e-12,1.5229499e-16,-2.7165335e-30
3.0357143,0,0,0
