y,U_0,U_1,U_2
0,0,0,0
0.00048240845,-0.0022166795,-7.5596789e-07,4.8568862e-24
0.00098049384,-0.004419042,-2.2312178e-06,4.0615732e-24
0.0014947656,-0.0066199588,-5.0630926e-06,-4.0736025e-25
0.0020257498,-0.0088144607,-9.2834204e-06,-2.4214063e-24
0.0025739895,-0.010997169,-1.4919369e-05,-2.1362558e-25
0.0031400454,-0.013162142,-2.2091866e-05,-4.0882965e-24
0.0037244966,-0.015302764,-3.0920466e-05,-9.0944112e-24
0.0043279408,-0.017411605,-4.1528554e-05,-2.6104086e-24
0.0049509953,-0.019480232,-5.4045172e-05,4.1635536e-24
0.0055942973,-0.021498964,-6.860436e-05,4.1559016e-24
0.0062585048,-0.023456597,-8.5344516e-05,-4.0399451e-24
0.0069442972,-0.02534011,-0.00010440714,-1.5585113e-23
0.007652376,-0.027134438,-0.00012593388,-1.7759862e-24
0.0083834654,-0.028822413,-0.00015006394,2.8390445e-25
0.0091383131,-0.030385075,-0.00017692994,5.0757706e-24
0.0099176913,-0.031802558,-0.00020665228,3.0461007e-24
0.010722397,-0.033055727,-0.00023933385,-6.8120399e-24
0.011553254,-0.034128518,-0.00027505439,-5.7611112e-24
0.012411111,-0.035010547,-0.00031386646,3.8602198e-24
0.013296846,-0.035699195,-0.00035579523,7.6239936e-24
0.014211364,-0.03620034,-0.00040084252,-3.2730403e-24
0.015155603,-0.036527362,-0.00044899399,1.9703299e-23
0.016130526,-0.036698811,-0.00050022779,1.6078321e-23
0.017137132,-0.036735582,-0.00055452196,-2.0192764e-24
0.018176449,-0.036658449,-0.00061185966,1.485539e-24
0.019249542,-0.036486396,-0.00067223198,1.5174063e-23
0.020357507,-0.03623579,-0.00073563951,1.6301389e-23
0.021501477,-0.035920177,-0.00080209272,1.2721986e-23
0.022682624,-0.035550466,-0.0008716119,1.0573661e-23
0.023902154,-0.035135278,-0.00094422673,8.7365351e-24
0.025161316,-0.034681339,-0.0010199758,6.7498094e-24
0.026461397,-0.034193853,-0.0010989059,-6.1424729e-24
0.027803728,-0.033676817,-0.0011810715,2.2798338e-24
0.02918968,-0.03313328,-0.001266534,4.4270225e-24
0.030620672,-0.032565549,-0.0013553612,9.7976466e-24
0.032098167,-0.031975351,-0.0014476274,1.1672236e-23
0.033623676,-0.031363955,-0.0015434123,1.6272194e-24
0.03519876,-0.030732267,-0.0016428009,4.5006913e-24
0.03682503,-0.030080905,-0.0017458836,6.8922527e-24
0.03850415,-0.029410254,-0.0018527556,1.0182409e-23
0.040237836,-0.02872051,-0.0019635168,-2.2868645e-24
0.042027862,-0.028011711,-0.0020782719,-1.0885749e-23
0.043876059,-0.027283765,-0.0021971299,3.234298e-24
0.045784317,-0.026536471,-0.0023202046,9.0898462e-24
0.047754588,-0.025769528,-0.0024476139,-4.2369371e-24
0.049788888,-0.024982554,-0.0025794804,-4.7568807e-24
0.051889297,-0.02417509,-0.0027159307,-1.8500517e-23
0.054057963,-0.02334661,-0.0028570961,-3.1654739e-23
0.056297104,-0.022496522,-0.0030031119,-4.6712627e-24
0.058609012,-0.021624173,-0.0031541182,1.2641193e-23
0.06099605,-0.020728857,-0.003310259,-8.6491083e-24
0.06346066,-0.019809805,-0.003471683,-2.5011942e-23
0.066005363,-0.018866197,-0.0036385432,-2.219865e-23
0.068632762,-0.017897153,-0.0038109969,-2.1331964e-23
0.071345544,-0.01690174,-0.0039892061,-2.4112867e-23
0.074146484,-0.015878964,-0.0041733369,2.0053738e-24
0.077038447,-0.014827774,-0.0043635599,1.623406e-23
0.08002439,-0.013747053,-0.0045600504,2.1349642e-23
0.083107369,-0.012635625,-0.0047629879,3.7151808e-23
0.086290535,-0.011492242,-0.0049725562,1.2126004e-23
0.089577146,-0.010315588,-0.0051889436,-5.4570986e-24
0.092970562,-0.0091042701,-0.0054123428,4.9913172e-25
0.096474255,-0.0078568196,-0.0056429507,-7.2973061e-24
0.10009181,-0.0065716821,-0.0058809683,-1.3960786e-23
0.10382692,-0.0052472158,-0.0061266009,-3.3938912e-24
0.10768342,-0.0038816847,-0.0063800574,-2.126398e-24
0.11166524,-0.0024732587,-0.0066415492,-2.9011699e-23
0.11577645,-0.0010200137,-0.0069112867,-1.0223257e-23
0.12002127,0.0004800422,-0.007189478,1.2551029e-23
0.12440404,0.0020289794,-0.007476329,-2.2650697e-24
0.12892923,0.0036289998,-0.0077720482,1.9806169e-23
0.13360148,0.0052824885,-0.008076851,3.4832604e-23
0.13842557,0.0069920252,-0.0083909611,4.0882186e-23
0.14340642,0.0087603566,-0.0087146085,5.9915132e-23
0.14854914,0.010590397,-0.0090480251,5.5925966e-23
0.15385898,0.012485239,-0.0093914429,-4.3564266e-23
0.15934138,0.01444817,-0.0097450933,-4.6871704e-23
0.16500194,0.016482681,-0.010109207,1.1600887e-23
0.17084645,0.018592485,-0.010484013,1.6544779e-24
0.17688089,0.020781531,-0.010869735,-3.6560307e-23
0.18311143,0.023054022,-0.011266597,-1.4852292e-23
0.18954445,0.025414433,-0.011674813,5.262587e-23
0.19618653,0.02786753,-0.012094591,8.0657969e-23
0.20304445,0.030418391,-0.012526133,1.8235068e-23
0.21012524,0.03307243,-0.012969627,-2.6105732e-23
0.21743614,0.035835421,-0.01342525,1.8318706e-23
0.22498461,0.03871352,-0.013893163,4.8343846e-24
0.23277839,0.041713297,-0.014373509,2.5023052e-23
0.24082545,0.044841765,-0.01486641,-9.6169569e-23
0.24913402,0.048106407,-0.015371965,-2.4290342e-23
0.25771259,0.051515214,-0.015890243,1.5121936e-22
0.26656994,0.055076718,-0.01642128,4.4103013e-23
0.27571513,0.058800026,-0.016965077,-1.2601151e-22
0.28515751,0.062694866,-0.017521591,-8.1923536e-23
0.29490674,0.06677162,-0.01809073,1.217518e-22
0.3049728,0.071041382,-0.018672346,1.4594071e-22
0.31536597,0.075515989,-0.019266232,-7.1696488e-24
0.3260969,0.080208052,-0.019872105,3.2853269e-23
0.33717655,0.085131011,-0.020489606,1.5670377e-22
0.34861625,0.0902992,-0.021118287,-3.4819826e-23
0.36042772,0.095727883,-0.021757597,-5.1474481e-23
0.37262303,0.1014333,-0.022406872,6.1964287e-25
0.38521464,0.10743272,-0.023065322,2.5864798e-23
0.39821546,0.11374447,-0.023732018,-6.3010638e-23
0.41163876,0.12038796,-0.024405871,-1.963241e-22
0.42549828,0.12738376,-0.025085621,-1.8284202e-22
0.4398082,0.13475358,-0.025769813,-8.5438922e-23
0.45458315,0.14252031,-0.026456779,-4.7215937e-23
0.46983824,0.15070799,-0.027144618,-5.1743658e-22
0.48558908,0.15934186,-0.027831172,-3.7620799e-22
0.50185179,0.16844824,-0.028514001,5.1069453e-24
0.51864298,0.17805457,-0.029190355,-6.5190384e-23
0.53597984,0.18818926,-0.029857095,2.2542732e-22
0.5538801,0.19888165,-0.030511055,5.8694399e-23
0.57236207,0.21016212,-0.031149639,-9.7627671e-23
0.59144465,0.22206509,-0.031765635,-8.6592414e-23
0.61114736,0.23470235,-0.032346454,-7.4778238e-22
0.63149036,0.24829323,-0.032878904,-4.4475445e-22
0.65249445,0.26300884,-0.033347654,8.6601777e-22
0.67418111,0.27888353,-0.033742552,5.685127e-22
0.69657252,0.29586976,-0.034063482,-6.1822104e-22
0.7196916,0.31388867,-0.034312529,-1.209678e-21
0.74356198,0.33286605,-0.034489948,-1.016526e-21
0.76820808,0.3527475,-0.034593269,-1.1776855e-21
0.79365511,0.37349669,-0.034617662,-7.4651264e-22
0.8199291,0.39508629,-0.034557041,-4.8358528e-22
0.84705692,0.41748641,-0.03440524,-2.0620877e-21
0.87506632,0.44065321,-0.034157001,-2.262227e-22
0.90398595,0.4645211,-0.033808793,-9.8800581e-23
0.93384539,0.48899895,-0.033359332,-2.6196055e-21
0.94954502,0.50171566,-0.033079649,-2.6055974e-21
0.96467517,0.51396956,-0.032809608,-2.4721014e-21
0.99650683,0.53929264,-0.032163554,1.1097736e-21
1.0293729,0.56480968,-0.031428129,7.2651652e-22
1.0633071,0.59035044,-0.030612553,-2.4720992e-21
1.098344,0.61574257,-0.029728257,-3.5936919e-22
1.1345196,0.64082298,-0.028788321,-1.2902234e-21
1.1718707,0.66544875,-0.027806681,-1.3663882e-21
1.2104356,0.68950371,-0.026797241,1.1711174e-22
1.2502538,0.71290195,-0.025772953,1.7476664e-21
1.291366,0.73559014,-0.024744969,9.9163481e-22
1.3338142,0.75754637,-0.023722087,-3.2081311e-22
1.3776419,0.77877495,-0.022710636,2.8509909e-22
1.4228938,0.79930109,-0.021714728,1.7363307e-21
1.4696163,0.81917004,-0.020736907,4.72216e-22
1.5178571,0.83831354,-0.019784904,-3.0821217e-21
1.566098,0.85639655,-0.018879368,-2.9380118e-21
1.6128205,0.87313325,-0.018036727,-5.4476974e-22
1.6580724,0.88853882,-0.017256707,1.3434473e-21
1.7019001,0.9027287,-0.016534129,4.1046673e-22
1.7443483,0.9157979,-0.015864679,1.5353829e-21
1.7854605,0.92782938,-0.015244208,-2.8896065e-22
1.8252786,0.93889689,-0.014668472,-1.3682078e-21
1.8638436,0.949068,-0.014132725,-1.0214497e-21
1.9011947,0.9584129,-0.013632025,-1.8465349e-21
1.9373703,0.9670253,-0.013157115,2.687162e-22
1.9724072,0.97502368,-0.012697573,-3.1781183e-22
2.0063413,0.98250108,-0.012247544,-2.4181738e-21
2.0163351,0.98462844,-0.012113521,-2.2381349e-21
2.0392075,0.98949764,-0.011806895,-1.7090432e-21
2.0710391,0.9960321,-0.011378859,-1.2237228e-21
2.1018689,1.002125,-0.010964415,-1.2588721e-21
2.1317283,1.0077974,-0.010564064,-4.0825048e-22
2.160648,1.0130702,-0.010177909,4.7460283e-22
2.1886574,1.0179634,-0.0098058093,4.8658395e-22
2.2157852,1.022496,-0.009447458,3.8262683e-22
2.2420592,1.0266857,-0.0091024492,5.1649262e-22
2.2675062,1.030549,-0.0087703211,3.9333516e-22
2.2921523,1.0341012,-0.0084505836,8.2547335e-22
2.3160227,1.0373561,-0.0081427365,5.1781833e-22
2.3391418,1.0403263,-0.0078462852,-6.8900097e-23
2.3615332,1.0430232,-0.0075607471,-3.2127434e-23
2.3832198,1.045457,-0.0072856548,1.3491414e-22
2.4042239,1.0476368,-0.0070205594,1.4280857e-22
2.4245669,1.0495705,-0.0067650303,2.8021233e-24
2.4442696,1.0512651,-0.0065186552,3.6517227e-23
2.4633522,1.0527265,-0.0062810392,2.918359e-22
2.4818342,1.0539597,-0.006051804,1.0229017e-22
2.4997344,1.0549688,-0.0058305863,-3.8632448e-22
2.5170713,1.0557569,-0.0056170374,-4.2604178e-22
2.5338625,1.0563267,-0.0054108212,-3.8407925e-22
2.5501252,1.0566798,-0.0052116134,-5.2888313e-22
2.565876,1.0568174,-0.0050191007,-3.8190193e-22
2.5811311,1.05674,-0.0048329795,8.2879409e-23
2.5959061,1.0564476,-0.0046529555,1.9880632e-22
2.610216,1.0559399,-0.004478743,2.6924932e-22
2.6240755,1.0552162,-0.0043100642,3.8855691e-22
2.6374988,1.0542756,-0.0041466496,5.2716124e-22
2.6504996,1.0531172,-0.0039882372,3.6470314e-22
2.6630913,1.0517398,-0.0038345726,-1.1096338e-22
2.6752866,1.0501428,-0.0036854096,-1.1445222e-22
2.687098,1.0483251,-0.0035405104,-1.8721871e-22
2.6985377,1.0462865,-0.003399646,7.7419099e-24
2.7096174,1.0440268,-0.0032625971,3.3079508e-22
2.7203483,1.0415464,-0.003129155,1.7338592e-22
2.7307415,1.038846,-0.0029991221,3.0987553e-22
2.7408075,1.0359268,-0.0028723129,-9.8004678e-23
2.7505568,1.0327908,-0.0027485547,-4.12651e-22
2.7599992,1.0294401,-0.0026276891,-2.0920941e-22
2.7691443,1.0258775,-0.0025095719,-1.054775e-22
2.7780017,1.0221066,-0.0023940742,1.8885775e-22
2.7865803,1.0181308,-0.0022810825,4.2561502e-22
2.7948888,1.0139545,-0.0021704989,4.3795333e-22
2.8029359,1.0095821,-0.002062241,4.5522325e-22
2.8107297,1.0050185,-0.0019562423,1.8329951e-22
2.8182781,1.0002688,-0.0018524506,8.7081198e-26
2.825589,0.99533835,-0.0017508284,-1.428497e-22
2.8326698,0.99023271,-0.0016513515,-1.0783773e-22
2.8395278,0.98495753,-0.0015540082,5.509861e-24
2.8461698,0.97951858,-0.0014587979,-8.8241716e-23
2.8526028,0.9739217,-0.0013657297,-2.0880395e-22
2.8588334,0.96817276,-0.0012748214,-6.2711418e-23
2.8648678,0.96227763,-0.001186098,-9.1886484e-24
2.8707123,0.95624218,-0.001099587,-4.0069287e-23
2.8763729,0.95007218,-0.0010153177,3.0134222e-22
2.8818553,0.94377338,-0.00093334293,2.0863072e-22
2.8871651,0.93734754,-0.00085367553,1.70808e-23
2.8923079,0.93077871,-0.00077620091,6.5204098e-23
2.8972887,0.92403641,-0.00070068842,-4.1077338e-23
2.9021128,0.91710428,-0.00062706211,1.6622738e-25
2.9067851,0.90998852,-0.00055545919,1.0319144e-22
2.9113102,0.90270608,-0.00048602595,-1.6646114e-23
2.915693,0.8952775,-0.0004189182,-1.408422e-22
2.9199378,0.88772298,-0.00035429709,3.5827517e-23
2.924049,0.88006057,-0.0002923125,1.9530231e-22
2.9280309,0.8723057,-0.00023309163,8.420869e-23
2.9318874,0.86447126,-0.00017673528,6.1899499e-23
2.9356225,0.85656787,-0.00012331947,8.6775649e-23
2.93924,0.84860431,-7.2899817e-05,3.2906873e-24
2.9427437,0.84058801,-2.5519832e-05,-8.3431231e-23
2.9461371,0.83252517,1.8785654e-05,-1.1088473e-22
2.9494237,0.82442081,5.9992949e-05,-3.2020537e-24
2.9526069,0.81627904,9.8093934e-05,8.06485e-23
2.9556899,0.80810289,0.00013310121,5.8539097e-23
2.9586758,0.79989436,0.00016504844,1.3682527e-23
2.9615678,0.79165453,0.00019398697,-7.0529036e-23
2.9643687,0.78338362,0.00021997903,-1.3981198e-23
2.9670815,0.77508109,0.0002430878,5.1284927e-23
2.9697089,0.76674568,0.00026336872,1.2983867e-23
2.9722536,0.75837558,0.0002808635,1.7284569e-25
2.9747182,0.7499683,0.0002955982,-2.675925e-23
2.9771053,0.74152037,0.00030759303,-1.6831394e-23
2.9794172,0.73302638,0.00031692173,-1.2350941e-23
2.9816563,0.72447698,0.00032381092,-1.4220965e-23
2.983825,0.71585784,0.00032855896,-3.3476452e-23
2.9859254,0.70715393,0.00033146745,-2.6593503e-23
2.9879597,0.69835373,0.00033278214,3.8789748e-24
2.98993,0.68944723,0.00033262205,-2.3919155e-23
2.9918382,0.68042349,0.00033107799,-1.6385278e-23
2.9936864,0.67127055,0.00032825212,1.0913742e-24
2.9954764,0.66197534,0.00032424639,9.4203271e-24
2.9972101,0.65252354,0.00031915927,1.6486931e-23
2.9988893,0.64289959,0.00031308604,2.8615359e-23
3.0005155,0.63308647,0.0003061189,1.7336525e-23
3.0020906,0.62306561,0.00029834656,-4.5800926e-24
3.0036161,0.61281676,0.00028985914,-1.9879054e-23
3.0050936,0.60231782,0.00028074711,-2.3518854e-23
3.0065246,0.591543,0.0002710538,9.7753809e-24
3.0079106,0.58046054,0.00026080849,-1.2641868e-24
3.0092529,0.56903554,0.00025004477,-5.1371184e-24
3.010553,0.55723451,0.00023881034,1.1473159e-23
3.0118121,0.54502538,0.00022720532,4.1721858e-24
3.0130317,0.53237583,0.00021533728,8.5561743e-24
3.0142128,0.51925302,0.00020330447,9.39333e-24
3.0153568,0.5056236,0.00019119746,-1.0884995e-23
3.0164647,0.49145274,0.00017910179,-7.350051e-25
3.0175378,0.47669736,0.00016709116,2.550595e-24
3.0185772,0.46130208,0.00015522459,4.3998129e-24
3.0195838,0.44521073,0.00014355418,2.474756e-23
3.0205587,0.42837689,0.00013212884,2.009981e-23
3.0215029,0.4107646,0.0001209937,7.7132035e-25
3.0224174,0.39235163,0.00011018905,-8.5416799e-24
3.0233032,0.37313692,9.9751464e-05,3.737433e-24
3.024161,0.35314923,8.9713957e-05,9.8339588e-24
3.0249919,0.33245533,8.0106435e-05,-2.2016355e-24
3.0257966,0.31116532,7.0956492e-05,4.0911637e-25
3.026576,0.28943158,6.2290204e-05,1.6996491e-23
3.0273308,0.26743907,5.4132543e-05,6.1905273e-24
3.0280619,0.24538752,4.6507237e-05,-9.6623891e-24
3.02877,0.22346966,3.9436003e-05,-1.1570751e-23
3.0294558,0.20185207,3.2937399e-05,-4.7363525e-24
3.03012,0.18066356,2.7025806e-05,4.3581115e-24
3.0307633,0.15999275,2.171075e-05,4.4497499e-24
3.0313863,0.13989272,1.6996627e-05,-1.3908956e-24
3.0319898,0.12038914,1.2882834e-05,-5.7164429e-24
3.0325742,0.1014887,9.3641586e-06,-3.9949978e-24
3.0331403,0.083186176,6.4312219e-06,-7.3592223e-25
3.0336885,0.065469395,4.0709963e-06,4.6661461e-24
3.0342195,0.048322456,2.2686462e-06,3.0731744e-24
3.0347338,0.031727698,1.0089949e-06,1.0143876e-24
3.0352319,0.015666952,2.626364e-07,9.7050842e-26
3.0357122,6.6774494e-05,1.1194224e-09,4.1113763e-28
